<VTKFile byte_order="LittleEndian" type="PolyData" version="0.1">
 <PolyData>
     <Piece   NumberOfPoints="1000">
         <Points>
             <DataArray Name="coords" NumberOfComponents="3" type="Float64">
0.00121029	0.00121201	0.00121066	1	3.4656e-05	3.4656e-05	3.4656e-05	4	2	11	101	-1	1	0	1	2	3	4	2	0.000161432	3.4656e-05	3.4656e-05	4	3	12	102	1	0	0	5	6	7	1	3	0.000288207	3.4656e-05	3.4656e-05	4	4	13	103	2	0	0	8	9	10	5	4	0.000414983	3.4656e-05	3.4656e-05	4	5	14	104	3	0	0	11	12	13	8	5	0.000541758	3.4656e-05	3.4656e-05	4	6	15	105	4	0	0	14	15	16	11	6	0.000668534	3.4656e-05	3.4656e-05	4	7	16	106	5	0	0	17	18	19	14	7	0.00079531	3.4656e-05	3.4656e-05	4	8	17	107	6	0	0	20	21	22	17	8	0.000922085	3.4656e-05	3.4656e-05	4	9	18	108	7	0	0	23	24	25	20	9	0.00104886	3.4656e-05	3.4656e-05	4	10	19	109	8	0	0	26	27	28	23	10	0.00117564	3.4656e-05	3.4656e-05	4	0	20	110	9	0	1	29	30	31	26	11	3.4656e-05	0.000161622	3.4656e-05	5	12	21	111	-1	1	1	0	32	33	34	35	2	12	0.000161432	0.000161622	3.4656e-05	5	13	22	112	11	2	0	0	36	37	38	32	6	13	0.000288207	0.000161622	3.4656e-05	5	14	23	113	12	3	0	0	39	40	41	36	9	14	0.000414983	0.000161622	3.4656e-05	5	15	24	114	13	4	0	0	42	43	44	39	12	15	0.000541758	0.000161622	3.4656e-05	5	16	25	115	14	5	0	0	45	46	47	42	15	16	0.000668534	0.000161622	3.4656e-05	5	17	26	116	15	6	0	0	48	49	50	45	18	17	0.00079531	0.000161622	3.4656e-05	5	18	27	117	16	7	0	0	51	52	53	48	21	18	0.000922085	0.000161622	3.4656e-05	5	19	28	118	17	8	0	0	54	55	56	51	24	19	0.00104886	0.000161622	3.4656e-05	5	20	29	119	18	9	0	0	57	58	59	54	27	20	0.00117564	0.000161622	3.4656e-05	5	0	30	120	19	10	0	1	60	61	62	57	30	21	3.4656e-05	0.000288589	3.4656e-05	5	22	31	121	-1	11	1	0	63	64	65	66	33	22	0.000161432	0.000288589	3.4656e-05	5	23	32	122	21	12	0	0	67	68	69	63	37	23	0.000288207	0.000288589	3.4656e-05	5	24	33	123	22	13	0	0	70	71	72	67	40	24	0.000414983	0.000288589	3.4656e-05	5	25	34	124	23	14	0	0	73	74	75	70	43	25	0.000541758	0.000288589	3.4656e-05	5	26	35	125	24	15	0	0	76	77	78	73	46	26	0.000668534	0.000288589	3.4656e-05	5	27	36	126	25	16	0	0	79	80	81	76	49	27	0.00079531	0.000288589	3.4656e-05	5	28	37	127	26	17	0	0	82	83	84	79	52	28	0.000922085	0.000288589	3.4656e-05	5	29	38	128	27	18	0	0	85	86	87	82	55	29	0.00104886	0.000288589	3.4656e-05	5	30	39	129	28	19	0	0	88	89	90	85	58	30	0.00117564	0.000288589	3.4656e-05	5	0	40	130	29	20	0	1	91	92	93	88	61	31	3.4656e-05	0.000415555	3.4656e-05	5	32	41	131	-1	21	1	0	94	95	96	97	64	32	0.000161432	0.000415555	3.4656e-05	5	33	42	132	31	22	0	0	98	99	100	94	68	33	0.000288207	0.000415555	3.4656e-05	5	34	43	133	32	23	0	0	101	102	103	98	71	34	0.000414983	0.000415555	3.4656e-05	5	35	44	134	33	24	0	0	104	105	106	101	74	35	0.000541758	0.000415555	3.4656e-05	5	36	45	135	34	25	0	0	107	108	109	104	77	36	0.000668534	0.000415555	3.4656e-05	5	37	46	136	35	26	0	0	110	111	112	107	80	37	0.00079531	0.000415555	3.4656e-05	5	38	47	137	36	27	0	0	113	114	115	110	83	38	0.000922085	0.000415555	3.4656e-05	5	39	48	138	37	28	0	0	116	117	118	113	86	39	0.00104886	0.000415555	3.4656e-05	5	40	49	139	38	29	0	0	119	120	121	116	89	40	0.00117564	0.000415555	3.4656e-05	5	0	50	140	39	30	0	1	122	123	124	119	92	41	3.4656e-05	0.000542522	3.4656e-05	5	42	51	141	-1	31	1	0	125	126	127	128	95	42	0.000161432	0.000542522	3.4656e-05	5	43	52	142	41	32	0	0	129	130	131	125	99	43	0.000288207	0.000542522	3.4656e-05	5	44	53	143	42	33	0	0	132	133	134	129	102	44	0.000414983	0.000542522	3.4656e-05	5	45	54	144	43	34	0	0	135	136	137	132	105	45	0.000541758	0.000542522	3.4656e-05	5	46	55	145	44	35	0	0	138	139	140	135	108	46	0.000668534	0.000542522	3.4656e-05	5	47	56	146	45	36	0	0	141	142	143	138	111	47	0.00079531	0.000542522	3.4656e-05	5	48	57	147	46	37	0	0	144	145	146	141	114	48	0.000922085	0.000542522	3.4656e-05	5	49	58	148	47	38	0	0	147	148	149	144	117	49	0.00104886	0.000542522	3.4656e-05	5	50	59	149	48	39	0	0	150	151	152	147	120	50	0.00117564	0.000542522	3.4656e-05	5	0	60	150	49	40	0	1	153	154	155	150	123	51	3.4656e-05	0.000669488	3.4656e-05	5	52	61	151	-1	41	1	0	156	157	158	159	126	52	0.000161432	0.000669488	3.4656e-05	5	53	62	152	51	42	0	0	160	161	162	156	130	53	0.000288207	0.000669488	3.4656e-05	5	54	63	153	52	43	0	0	163	164	165	160	133	54	0.000414983	0.000669488	3.4656e-05	5	55	64	154	53	44	0	0	166	167	168	163	136	55	0.000541758	0.000669488	3.4656e-05	5	56	65	155	54	45	0	0	169	170	171	166	139	56	0.000668534	0.000669488	3.4656e-05	5	57	66	156	55	46	0	0	172	173	174	169	142	57	0.00079531	0.000669488	3.4656e-05	5	58	67	157	56	47	0	0	175	176	177	172	145	58	0.000922085	0.000669488	3.4656e-05	5	59	68	158	57	48	0	0	178	179	180	175	148	59	0.00104886	0.000669488	3.4656e-05	5	60	69	159	58	49	0	0	181	182	183	178	151	60	0.00117564	0.000669488	3.4656e-05	5	0	70	160	59	50	0	1	184	185	186	181	154	61	3.4656e-05	0.000796455	3.4656e-05	5	62	71	161	-1	51	1	0	187	188	189	190	157	62	0.000161432	0.000796455	3.4656e-05	5	63	72	162	61	52	0	0	191	192	193	187	161	63	0.000288207	0.000796455	3.4656e-05	5	64	73	163	62	53	0	0	194	195	196	191	164	64	0.000414983	0.000796455	3.4656e-05	5	65	74	164	63	54	0	0	197	198	199	194	167	65	0.000541758	0.000796455	3.4656e-05	5	66	75	165	64	55	0	0	200	201	202	197	170	66	0.000668534	0.000796455	3.4656e-05	5	67	76	166	65	56	0	0	203	204	205	200	173	67	0.00079531	0.000796455	3.4656e-05	5	68	77	167	66	57	0	0	206	207	208	203	176	68	0.000922085	0.000796455	3.4656e-05	5	69	78	168	67	58	0	0	209	210	211	206	179	69	0.00104886	0.000796455	3.4656e-05	5	70	79	169	68	59	0	0	212	213	214	209	182	70	0.00117564	0.000796455	3.4656e-05	5	0	80	170	69	60	0	1	215	216	217	212	185	71	3.4656e-05	0.000923421	3.4656e-05	5	72	81	171	-1	61	1	0	218	219	220	221	188	72	0.000161432	0.000923421	3.4656e-05	5	73	82	172	71	62	0	0	222	223	224	218	192	73	0.000288207	0.000923421	3.4656e-05	5	74	83	173	72	63	0	0	225	226	227	222	195	74	0.000414983	0.000923421	3.4656e-05	5	75	84	174	73	64	0	0	228	229	230	225	198	75	0.000541758	0.000923421	3.4656e-05	5	76	85	175	74	65	0	0	231	232	233	228	201	76	0.000668534	0.000923421	3.4656e-05	5	77	86	176	75	66	0	0	234	235	236	231	204	77	0.00079531	0.000923421	3.4656e-05	5	78	87	177	76	67	0	0	237	238	239	234	207	78	0.000922085	0.000923421	3.4656e-05	5	79	88	178	77	68	0	0	240	241	242	237	210	79	0.00104886	0.000923421	3.4656e-05	5	80	89	179	78	69	0	0	243	244	245	240	213	80	0.00117564	0.000923421	3.4656e-05	5	0	90	180	79	70	0	1	246	247	248	243	216	81	3.4656e-05	0.00105039	3.4656e-05	5	82	91	181	-1	71	1	0	249	250	251	252	219	82	0.000161432	0.00105039	3.4656e-05	5	83	92	182	81	72	0	0	253	254	255	249	223	83	0.000288207	0.00105039	3.4656e-05	5	84	93	183	82	73	0	0	256	257	258	253	226	84	0.000414983	0.00105039	3.4656e-05	5	85	94	184	83	74	0	0	259	260	261	256	229	85	0.000541758	0.00105039	3.4656e-05	5	86	95	185	84	75	0	0	262	263	264	259	232	86	0.000668534	0.00105039	3.4656e-05	5	87	96	186	85	76	0	0	265	266	267	262	235	87	0.00079531	0.00105039	3.4656e-05	5	88	97	187	86	77	0	0	268	269	270	265	238	88	0.000922085	0.00105039	3.4656e-05	5	89	98	188	87	78	0	0	271	272	273	268	241	89	0.00104886	0.00105039	3.4656e-05	5	90	99	189	88	79	0	0	274	275	276	271	244	90	0.00117564	0.00105039	3.4656e-05	5	0	100	190	89	80	0	1	277	278	279	274	247	91	3.4656e-05	0.00117735	3.4656e-05	4	92	191	-1	81	1	0	280	281	282	250	92	0.000161432	0.00117735	3.4656e-05	4	93	192	91	82	0	0	283	284	280	254	93	0.000288207	0.00117735	3.4656e-05	4	94	193	92	83	0	0	285	286	283	257	94	0.000414983	0.00117735	3.4656e-05	4	95	194	93	84	0	0	287	288	285	260	95	0.000541758	0.00117735	3.4656e-05	4	96	195	94	85	0	0	289	290	287	263	96	0.000668534	0.00117735	3.4656e-05	4	97	196	95	86	0	0	291	292	289	266	97	0.00079531	0.00117735	3.4656e-05	4	98	197	96	87	0	0	293	294	291	269	98	0.000922085	0.00117735	3.4656e-05	4	99	198	97	88	0	0	295	296	293	272	99	0.00104886	0.00117735	3.4656e-05	4	100	199	98	89	0	0	297	298	295	275	100	0.00117564	0.00117735	3.4656e-05	4	0	200	99	90	0	1	299	300	297	278	101	3.4656e-05	3.4656e-05	0.000161472	5	102	111	201	-1	1	1	0	301	302	303	304	3	102	0.000161432	3.4656e-05	0.000161472	5	103	112	202	101	2	0	0	305	306	307	301	7	103	0.000288207	3.4656e-05	0.000161472	5	104	113	203	102	3	0	0	308	309	310	305	10	104	0.000414983	3.4656e-05	0.000161472	5	105	114	204	103	4	0	0	311	312	313	308	13	105	0.000541758	3.4656e-05	0.000161472	5	106	115	205	104	5	0	0	314	315	316	311	16	106	0.000668534	3.4656e-05	0.000161472	5	107	116	206	105	6	0	0	317	318	319	314	19	107	0.00079531	3.4656e-05	0.000161472	5	108	117	207	106	7	0	0	320	321	322	317	22	108	0.000922085	3.4656e-05	0.000161472	5	109	118	208	107	8	0	0	323	324	325	320	25	109	0.00104886	3.4656e-05	0.000161472	5	110	119	209	108	9	0	0	326	327	328	323	28	110	0.00117564	3.4656e-05	0.000161472	5	0	120	210	109	10	0	1	329	330	331	326	31	111	3.4656e-05	0.000161622	0.000161472	6	112	121	211	-1	101	11	1	0	332	333	334	335	302	34	112	0.000161432	0.000161622	0.000161472	6	113	122	212	111	102	12	0	0	336	337	338	332	306	38	113	0.000288207	0.000161622	0.000161472	6	114	123	213	112	103	13	0	0	339	340	341	336	309	41	114	0.000414983	0.000161622	0.000161472	6	115	124	214	113	104	14	0	0	342	343	344	339	312	44	115	0.000541758	0.000161622	0.000161472	6	116	125	215	114	105	15	0	0	345	346	347	342	315	47	116	0.000668534	0.000161622	0.000161472	6	117	126	216	115	106	16	0	0	348	349	350	345	318	50	117	0.00079531	0.000161622	0.000161472	6	118	127	217	116	107	17	0	0	351	352	353	348	321	53	118	0.000922085	0.000161622	0.000161472	6	119	128	218	117	108	18	0	0	354	355	356	351	324	56	119	0.00104886	0.000161622	0.000161472	6	120	129	219	118	109	19	0	0	357	358	359	354	327	59	120	0.00117564	0.000161622	0.000161472	6	0	130	220	119	110	20	0	1	360	361	362	357	330	62	121	3.4656e-05	0.000288589	0.000161472	6	122	131	221	-1	111	21	1	0	363	364	365	366	333	65	122	0.000161432	0.000288589	0.000161472	6	123	132	222	121	112	22	0	0	367	368	369	363	337	69	123	0.000288207	0.000288589	0.000161472	6	124	133	223	122	113	23	0	0	370	371	372	367	340	72	124	0.000414983	0.000288589	0.000161472	6	125	134	224	123	114	24	0	0	373	374	375	370	343	75	125	0.000541758	0.000288589	0.000161472	6	126	135	225	124	115	25	0	0	376	377	378	373	346	78	126	0.000668534	0.000288589	0.000161472	6	127	136	226	125	116	26	0	0	379	380	381	376	349	81	127	0.00079531	0.000288589	0.000161472	6	128	137	227	126	117	27	0	0	382	383	384	379	352	84	128	0.000922085	0.000288589	0.000161472	6	129	138	228	127	118	28	0	0	385	386	387	382	355	87	129	0.00104886	0.000288589	0.000161472	6	130	139	229	128	119	29	0	0	388	389	390	385	358	90	130	0.00117564	0.000288589	0.000161472	6	0	140	230	129	120	30	0	1	391	392	393	388	361	93	131	3.4656e-05	0.000415555	0.000161472	6	132	141	231	-1	121	31	1	0	394	395	396	397	364	96	132	0.000161432	0.000415555	0.000161472	6	133	142	232	131	122	32	0	0	398	399	400	394	368	100	133	0.000288207	0.000415555	0.000161472	6	134	143	233	132	123	33	0	0	401	402	403	398	371	103	134	0.000414983	0.000415555	0.000161472	6	135	144	234	133	124	34	0	0	404	405	406	401	374	106	135	0.000541758	0.000415555	0.000161472	6	136	145	235	134	125	35	0	0	407	408	409	404	377	109	136	0.000668534	0.000415555	0.000161472	6	137	146	236	135	126	36	0	0	410	411	412	407	380	112	137	0.00079531	0.000415555	0.000161472	6	138	147	237	136	127	37	0	0	413	414	415	410	383	115	138	0.000922085	0.000415555	0.000161472	6	139	148	238	137	128	38	0	0	416	417	418	413	386	118	139	0.00104886	0.000415555	0.000161472	6	140	149	239	138	129	39	0	0	419	420	421	416	389	121	140	0.00117564	0.000415555	0.000161472	6	0	150	240	139	130	40	0	1	422	423	424	419	392	124	141	3.4656e-05	0.000542522	0.000161472	6	142	151	241	-1	131	41	1	0	425	426	427	428	395	127	142	0.000161432	0.000542522	0.000161472	6	143	152	242	141	132	42	0	0	429	430	431	425	399	131	143	0.000288207	0.000542522	0.000161472	6	144	153	243	142	133	43	0	0	432	433	434	429	402	134	144	0.000414983	0.000542522	0.000161472	6	145	154	244	143	134	44	0	0	435	436	437	432	405	137	145	0.000541758	0.000542522	0.000161472	6	146	155	245	144	135	45	0	0	438	439	440	435	408	140	146	0.000668534	0.000542522	0.000161472	6	147	156	246	145	136	46	0	0	441	442	443	438	411	143	147	0.00079531	0.000542522	0.000161472	6	148	157	247	146	137	47	0	0	444	445	446	441	414	146	148	0.000922085	0.000542522	0.000161472	6	149	158	248	147	138	48	0	0	447	448	449	444	417	149	149	0.00104886	0.000542522	0.000161472	6	150	159	249	148	139	49	0	0	450	451	452	447	420	152	150	0.00117564	0.000542522	0.000161472	6	0	160	250	149	140	50	0	1	453	454	455	450	423	155	151	3.4656e-05	0.000669488	0.000161472	6	152	161	251	-1	141	51	1	0	456	457	458	459	426	158	152	0.000161432	0.000669488	0.000161472	6	153	162	252	151	142	52	0	0	460	461	462	456	430	162	153	0.000288207	0.000669488	0.000161472	6	154	163	253	152	143	53	0	0	463	464	465	460	433	165	154	0.000414983	0.000669488	0.000161472	6	155	164	254	153	144	54	0	0	466	467	468	463	436	168	155	0.000541758	0.000669488	0.000161472	6	156	165	255	154	145	55	0	0	469	470	471	466	439	171	156	0.000668534	0.000669488	0.000161472	6	157	166	256	155	146	56	0	0	472	473	474	469	442	174	157	0.00079531	0.000669488	0.000161472	6	158	167	257	156	147	57	0	0	475	476	477	472	445	177	158	0.000922085	0.000669488	0.000161472	6	159	168	258	157	148	58	0	0	478	479	480	475	448	180	159	0.00104886	0.000669488	0.000161472	6	160	169	259	158	149	59	0	0	481	482	483	478	451	183	160	0.00117564	0.000669488	0.000161472	6	0	170	260	159	150	60	0	1	484	485	486	481	454	186	161	3.4656e-05	0.000796455	0.000161472	6	162	171	261	-1	151	61	1	0	487	488	489	490	457	189	162	0.000161432	0.000796455	0.000161472	6	163	172	262	161	152	62	0	0	491	492	493	487	461	193	163	0.000288207	0.000796455	0.000161472	6	164	173	263	162	153	63	0	0	494	495	496	491	464	196	164	0.000414983	0.000796455	0.000161472	6	165	174	264	163	154	64	0	0	497	498	499	494	467	199	165	0.000541758	0.000796455	0.000161472	6	166	175	265	164	155	65	0	0	500	501	502	497	470	202	166	0.000668534	0.000796455	0.000161472	6	167	176	266	165	156	66	0	0	503	504	505	500	473	205	167	0.00079531	0.000796455	0.000161472	6	168	177	267	166	157	67	0	0	506	507	508	503	476	208	168	0.000922085	0.000796455	0.000161472	6	169	178	268	167	158	68	0	0	509	510	511	506	479	211	169	0.00104886	0.000796455	0.000161472	6	170	179	269	168	159	69	0	0	512	513	514	509	482	214	170	0.00117564	0.000796455	0.000161472	6	0	180	270	169	160	70	0	1	515	516	517	512	485	217	171	3.4656e-05	0.000923421	0.000161472	6	172	181	271	-1	161	71	1	0	518	519	520	521	488	220	172	0.000161432	0.000923421	0.000161472	6	173	182	272	
             </DataArray>
         </Points>
         <PointData Scalars="Point Data">
             <DataArray type="Float32" Name="diameter" format="ascii">
1	1.29721e-13	2.53109e-05	0.0625	1.31032e-15	2	1.13817e-13	2.03255e-05	0.0368878	1.14967e-15	3	4.65799e-13	2.95077e-05	0.0275789	4.70504e-15	4	8.24017e-13	2.91782e-05	0.0150732	8.32341e-15	5	1.47974e-13	2.23693e-05	0.0378216	1.49468e-15	6	3.42343e-13	2.53327e-05	0.0237439	3.45801e-15	7	4.00638e-13	2.71712e-05	0.0250349	4.04684e-15	8	2.27544e-13	2.38324e-05	0.0297445	2.29842e-15	9	1.92009e-13	2.05939e-05	0.0227439	1.93948e-15	10	3.30105e-13	2.26741e-05	0.0176566	3.33439e-15	11	6.15685e-14	2.1399e-05	0.0795775	6.21904e-16	12	1.28e-13	2.51984e-05	0.0625	1.29293e-15	13	2.46255e-13	2.7762e-05	0.0434449	2.48742e-15	14	7.08203e-13	3.22716e-05	0.0237288	7.15356e-15	15	1.88387e-13	2.30403e-05	0.0324627	1.9029e-15	16	3.94424e-14	1.70199e-05	0.0625	3.98408e-16	17	5.19322e-14	2.02187e-05	0.0795775	5.24568e-16	18	3.86909e-13	2.09185e-05	0.0118291	3.90818e-15	19	7.3966e-14	2.27484e-05	0.0795775	7.47131e-16	20	2.58743e-13	2.68377e-05	0.0373538	2.61357e-15	21	6.04783e-13	3.65676e-05	0.0404259	6.10891e-15	22	2.77881e-13	2.39766e-05	0.0248012	2.80687e-15	23	2.3944e-13	2.63955e-05	0.0384025	2.41859e-15	24	2.98462e-13	3.34143e-05	0.0625	3.01476e-15	25	3.23976e-13	2.30595e-05	0.0189238	3.27249e-15	26	9.10991e-14	1.86426e-05	0.0355608	9.20193e-16	27	1.65603e-13	2.4237e-05	0.0429872	1.67275e-15	28	6.92656e-14	2.05341e-05	0.0625	6.99652e-16	29	1.00155e-12	2.84677e-05	0.0115174	1.01166e-14	30	1.68098e-13	2.00921e-05	0.0241259	1.69796e-15	31	2.05563e-13	2.48419e-05	0.0372891	2.07639e-15	32	1.2562e-13	2.0198e-05	0.0327972	1.26889e-15	33	1.05557e-13	2.1531e-05	0.0472802	1.06623e-15	34	1.09565e-13	2.16615e-05	0.0463831	1.10672e-15	35	4.96009e-13	3.1638e-05	0.0319231	5.01019e-15	36	4.60917e-13	2.49699e-05	0.0168888	4.65573e-15	37	8.6558e-13	3.04013e-05	0.0162308	8.74323e-15	38	1.49691e-13	2.65482e-05	0.0625	1.51203e-15	39	4.34432e-13	2.88786e-05	0.027719	4.3882e-15	40	1.02798e-12	3.15108e-05	0.0152183	1.03836e-14	41	3.55905e-13	3.10716e-05	0.0421433	3.595e-15	42	8.23556e-14	1.7951e-05	0.0351192	8.31874e-16	43	1.53512e-13	2.369e-05	0.0433039	1.55062e-15	44	3.59539e-13	2.76781e-05	0.029487	3.63171e-15	45	7.5836e-13	3.63347e-05	0.031627	7.66021e-15	46	3.92219e-13	2.91143e-05	0.0314601	3.96181e-15	47	8.011e-13	2.83142e-05	0.0141676	8.09192e-15	48	6.89811e-14	2.0506e-05	0.0625	6.96779e-16	49	6.53644e-13	2.89055e-05	0.0184745	6.60247e-15	50	2.33726e-13	3.07992e-05	0.0625	2.36087e-15	51	1.94861e-13	2.89876e-05	0.0625	1.9683e-15	52	4.00972e-13	3.03184e-05	0.0347515	4.05022e-15	53	1.39056e-13	2.32555e-05	0.0452229	1.40461e-15	54	1.74299e-13	2.43985e-05	0.0416641	1.7606e-15	55	3.41769e-13	2.90497e-05	0.0358644	3.45222e-15	56	3.27982e-13	2.65807e-05	0.0286297	3.31295e-15	57	1.12933e-13	2.41682e-05	0.0625	1.14074e-15	58	1.20466e-13	2.14829e-05	0.0411511	1.21683e-15	59	4.33341e-13	2.91974e-05	0.0287194	4.37718e-15	60	1.8615e-13	2.08656e-05	0.0244007	1.8803e-15	61	5.08362e-13	2.41493e-05	0.013852	5.13497e-15	62	1.05907e-13	1.90475e-05	0.0326254	1.06977e-15	63	3.23742e-13	2.26253e-05	0.0178877	3.27012e-15	64	3.33983e-13	2.65897e-05	0.028144	3.37356e-15	65	3.96673e-13	2.33275e-05	0.0160008	4.0068e-15	66	5.318e-14	2.03793e-05	0.0795775	5.37172e-16	67	1.49179e-13	1.54716e-05	0.0124128	1.50686e-15	68	5.53066e-14	2.06474e-05	0.0795775	5.58652e-16	69	3.30356e-13	2.86112e-05	0.0354483	3.33693e-15	70	5.74002e-13	3.10925e-05	0.0261834	5.798e-15	71	1.4717e-13	1.88322e-05	0.022691	1.48656e-15	72	5.45504e-13	2.66672e-05	0.0173822	5.51014e-15	73	3.30589e-13	3.04101e-05	0.0425341	3.33928e-15	74	2.08229e-13	2.44351e-05	0.0350326	2.10333e-15	75	1.29603e-13	2.20131e-05	0.0411528	1.30912e-15	76	6.15442e-13	2.92941e-05	0.0204232	6.21659e-15	77	1.41114e-13	2.01862e-05	0.029145	1.42539e-15	78	4.40535e-13	3.45442e-05	0.046786	4.44985e-15	79	6.72663e-14	1.77597e-05	0.0416373	6.79457e-16	80	9.0205e-13	3.32239e-05	0.0203278	9.11162e-15	81	5.23791e-13	2.89981e-05	0.0232767	5.29081e-15	82	6.65944e-13	2.95334e-05	0.0193407	6.72671e-15	83	5.53056e-13	2.98059e-05	0.023939	5.58642e-15	84	2.97657e-13	2.07876e-05	0.0150893	3.00664e-15	85	7.34291e-14	2.09376e-05	0.0625	7.41708e-16	86	3.48381e-13	2.70177e-05	0.0283049	3.51901e-15	87	3.06218e-13	2.84547e-05	0.0376183	3.09311e-15	88	1.38831e-13	2.80609e-05	0.0795775	1.40233e-15	89	6.56697e-13	2.93052e-05	0.019162	6.63331e-15	90	2.9344e-13	2.67588e-05	0.0326477	2.96404e-15	91	5.23593e-13	3.07923e-05	0.0278807	5.28882e-15	92	9.44853e-14	2.05565e-05	0.0459678	9.54397e-16	93	2.93683e-13	2.67152e-05	0.0324614	2.9665e-15	94	8.35137e-14	1.93241e-05	0.0432026	8.43573e-16	95	3.67181e-13	2.7928e-05	0.0296626	3.7089e-15	96	4.61587e-13	3.18377e-05	0.0349577	4.6625e-15	97	3.87074e-13	2.14757e-05	0.0127944	3.90984e-15	98	1.76037e-13	2.80224e-05	0.0625	1.77815e-15	99	5.72178e-14	1.9267e-05	0.0625	5.77958e-16	100	6.70043e-13	3.50445e-05	0.0321165	6.76811e-15	101	3.66333e-13	2.51587e-05	0.021735	3.70033e-15	102	2.07441e-13	2.11701e-05	0.022869	2.09537e-15	103	6.72726e-13	2.78352e-05	0.0160294	6.79521e-15	104	2.69987e-13	2.47821e-05	0.0281865	2.72714e-15	105	1.62329e-13	2.72752e-05	0.0625	1.63969e-15	106	4.19324e-13	3.03955e-05	0.0334848	4.2356e-15	107	1.78802e-13	2.44203e-05	0.040724	1.80608e-15	108	7.18891e-13	2.91011e-05	0.0171411	7.26152e-15	109	5.09528e-13	3.0056e-05	0.0266437	5.14674e-15	110	1.74545e-13	2.4258e-05	0.0408911	1.76308e-15	111	3.63851e-13	2.9254e-05	0.0344034	3.67526e-15	112	4.16877e-13	2.72291e-05	0.0242137	4.21088e-15	113	2.67565e-13	1.93906e-05	0.0136243	2.70268e-15	114	2.76683e-13	2.45898e-05	0.0268692	2.79478e-15	115	2.01397e-13	2.93081e-05	0.0625	2.03432e-15	116	1.02168e-13	2.33744e-05	0.0625	1.032e-15	117	1.15099e-13	1.94054e-05	0.0317443	1.16261e-15	118	1.81921e-13	2.47265e-05	0.0415503	1.83759e-15	119	8.63408e-13	3.8069e-05	0.0319497	8.7213e-15	120	6.60373e-13	3.12971e-05	0.023211	6.67044e-15	121	2.94128e-13	3.04663e-05	0.048072	2.97099e-15	122	4.34599e-13	2.95846e-05	0.0297906	4.38989e-15	123	4.40491e-13	3.39357e-05	0.0443612	4.4494e-15	124	4.8417e-13	2.41157e-05	0.0144835	4.89061e-15	125	4.47875e-13	3.05956e-05	0.0319733	4.52399e-15	126	2.33165e-13	2.63707e-05	0.0393251	2.35521e-15	127	2.56259e-13	2.27232e-05	0.0228928	2.58848e-15	128	1.10738e-13	2.0513e-05	0.0389724	1.11857e-15	129	1.7115e-13	2.39251e-05	0.0400088	1.72879e-15	130	2.14134e-13	2.42579e-05	0.0333307	2.16297e-15	131	8.97824e-14	1.92943e-05	0.0400007	9.06893e-16	132	3.81243e-13	3.1305e-05	0.0402355	3.85094e-15	133	1.79424e-13	2.49857e-05	0.0434675	1.81236e-15	134	3.09463e-13	2.70071e-05	0.0318268	3.12589e-15	135	2.98419e-13	2.30835e-05	0.0206085	3.01434e-15	136	1.3247e-13	2.14133e-05	0.0370595	1.33808e-15	137	5.97089e-13	2.66716e-05	0.0158883	6.0312e-15	138	2.37149e-13	2.68128e-05	0.040642	2.39544e-15	139	7.56803e-13	3.61074e-05	0.031101	7.64448e-15	140	9.47123e-14	2.47026e-05	0.0795775	9.5669e-16	141	9.74366e-13	3.19571e-05	0.0167475	9.84208e-15	142	3.12605e-13	2.93636e-05	0.0404951	3.15763e-15	143	9.21952e-14	1.83037e-05	0.0332567	9.31265e-16	144	1.15918e-13	1.74278e-05	0.0228322	1.17089e-15	145	3.758e-13	2.19741e-05	0.0141171	3.79596e-15	146	3.12683e-13	2.9318e-05	0.0402964	3.15842e-15	147	1.66737e-13	2.43939e-05	0.0435291	1.68421e-15	148	4.13492e-13	2.31581e-05	0.0150179	4.17669e-15	149	2.00339e-13	2.12525e-05	0.023957	2.02363e-15	150	1.55199e-13	2.32748e-05	0.0406196	1.56767e-15	151	9.38375e-14	2.03683e-05	0.0450253	9.47854e-16	152	1.47753e-13	2.0607e-05	0.0296127	1.49246e-15	153	1.05747e-13	2.00756e-05	0.0382566	1.06815e-15	154	8.98056e-14	2.02615e-05	0.0463104	9.07128e-16	155	4.25545e-13	2.65346e-05	0.0219513	4.29844e-15	156	1.01405e-13	1.99984e-05	0.0394365	1.02429e-15	157	6.45346e-13	2.91172e-05	0.0191262	6.51864e-15	158	5.1361e-13	3.50472e-05	0.0419078	5.18798e-15	159	1.52387e-13	2.33472e-05	0.0417565	1.53927e-15	160	9.21451e-14	2.05412e-05	0.0470302	9.30758e-16	161	7.52027e-14	2.28745e-05	0.0795775	7.59623e-16	162	1.29373e-13	2.16914e-05	0.039445	1.30679e-15	163	1.66415e-13	1.7893e-05	0.0172118	1.68096e-15	164	9.30161e-13	3.39692e-05	0.0210701	9.39556e-15	165	8.46245e-14	1.72607e-05	0.0303846	8.54793e-16	166	1.16945e-13	2.4451e-05	0.0625	1.18126e-15	167	1.83458e-13	2.0413e-05	0.0231821	1.85311e-15	168	1.16269e-13	2.64501e-05	0.0795775	1.17443e-15	169	2.3596e-13	3.34878e-05	0.0795775	2.38344e-15	170	3.83605e-13	2.09642e-05	0.0120094	3.8748e-15	171	7.9073e-14	1.67092e-05	0.0294994	7.98717e-16	172	2.51797e-13	3.15733e-05	0.0625	2.5434e-15	173	4.37976e-13	3.20537e-05	0.0375969	4.424e-15	174	2.36671e-13	2.084e-05	0.0191212	2.39062e-15	175	3.6278e-13	3.24863e-05	0.0472526	3.66444e-15	176	8.87866e-14	2.00871e-05	0.045643	8.96834e-16	177	4.29791e-13	3.07412e-05	0.0337967	4.34132e-15	178	1.65723e-13	2.31522e-05	0.0374423	1.67397e-15	179	2.95662e-13	2.40533e-05	0.0235341	2.98648e-15	180	1.10906e-13	1.99173e-05	0.035621	1.12027e-15	181	2.71849e-13	2.72569e-05	0.0372454	2.74595e-15	182	1.44977e-13	2.62665e-05	0.0625	1.46441e-15	183	2.55111e-13	2.23047e-05	0.0217486	2.57688e-15	184	2.98757e-13	3.04957e-05	0.0474641	3.01775e-15	185	2.83984e-13	2.762e-05	0.0370978	2.86853e-15	186	2.25705e-13	3.29954e-05	0.0795775	2.27985e-15	187	5.34218e-13	3.42615e-05	0.0376418	5.39615e-15	188	2.18815e-13	2.58948e-05	0.0396761	2.21025e-15	189	2.49395e-13	2.7532e-05	0.0418404	2.51914e-15	190	1.36685e-13	2.03414e-05	0.0307888	1.38066e-15	191	2.93139e-13	2.70565e-05	0.0337839	2.961e-15	192	1.083e-13	2.0467e-05	0.039583	1.09394e-15	193	3.92113e-13	2.60425e-05	0.022522	3.96074e-15	194	3.11884e-13	2.78113e-05	0.0344858	3.15035e-15	195	6.31532e-14	1.99114e-05	0.0625	6.37911e-16	196	1.50122e-13	2.65736e-05	0.0625	1.51638e-15	197	6.66513e-14	2.02724e-05	0.0625	6.73245e-16	198	1.78826e-13	2.29071e-05	0.0336087	1.80632e-15	199	1.85111e-13	2.00768e-05	0.0218584	1.86981e-15	200	1.63243e-13	1.81632e-05	0.0183534	1.64892e-15	
             </DataArray>
             <DataArray type="Float32" Name="pressure" format="ascii">