<VTKFile byte_order="LittleEndian" type="PolyData" version="0.1">
 <PolyData>
     <Piece  NumberOfLines="2900" NumberOfPoints="1000">
         <Points>
             <DataArray Name="nodes" NumberOfComponents="3" type="Float64">
0.00121029	0.00121201	0.00121066	1	3.4656e-05	3.4656e-05	3.4656e-05	4	2	11	101	-1	1	0	1	2	3	4	2	0.000161432	3.4656e-05	3.4656e-05	4	3	12	102	1	0	0	5	6	7	1	3	0.000288207	3.4656e-05	3.4656e-05	4	4	13	103	2	0	0	8	9	10	5	4	0.000414983	3.4656e-05	3.4656e-05	4	5	14	104	3	0	0	11	12	13	8	5	0.000541758	3.4656e-05	3.4656e-05	4	6	15	105	4	0	0	14	15	16	11	6	0.000668534	3.4656e-05	3.4656e-05	4	7	16	106	5	0	0	17	18	19	14	7	0.00079531	3.4656e-05	3.4656e-05	4	8	17	107	6	0	0	20	21	22	17	8	0.000922085	3.4656e-05	3.4656e-05	4	9	18	108	7	0	0	23	24	25	20	9	0.00104886	3.4656e-05	3.4656e-05	4	10	19	109	8	0	0	26	27	28	23	10	0.00117564	3.4656e-05	3.4656e-05	4	0	20	110	9	0	1	29	30	31	26	11	3.4656e-05	0.000161622	3.4656e-05	5	12	21	111	-1	1	1	0	32	33	34	35	2	12	0.000161432	0.000161622	3.4656e-05	5	13	22	112	11	2	0	0	36	37	38	32	6	13	0.000288207	0.000161622	3.4656e-05	5	14	23	113	12	3	0	0	39	40	41	36	9	14	0.000414983	0.000161622	3.4656e-05	5	15	24	114	13	4	0	0	42	43	44	39	12	15	0.000541758	0.000161622	3.4656e-05	5	16	25	115	14	5	0	0	45	46	47	42	15	16	0.000668534	0.000161622	3.4656e-05	5	17	26	116	15	6	0	0	48	49	50	45	18	17	0.00079531	0.000161622	3.4656e-05	5	18	27	117	16	7	0	0	51	52	53	48	21	18	0.000922085	0.000161622	3.4656e-05	5	19	28	118	17	8	0	0	54	55	56	51	24	19	0.00104886	0.000161622	3.4656e-05	5	20	29	119	18	9	0	0	57	58	59	54	27	20	0.00117564	0.000161622	3.4656e-05	5	0	30	120	19	10	0	1	60	61	62	57	30	21	3.4656e-05	0.000288589	3.4656e-05	5	22	31	121	-1	11	1	0	63	64	65	66	33	22	0.000161432	0.000288589	3.4656e-05	5	23	32	122	21	12	0	0	67	68	69	63	37	23	0.000288207	0.000288589	3.4656e-05	5	24	33	123	22	13	0	0	70	71	72	67	40	24	0.000414983	0.000288589	3.4656e-05	5	25	34	124	23	14	0	0	73	74	75	70	43	25	0.000541758	0.000288589	3.4656e-05	5	26	35	125	24	15	0	0	76	77	78	73	46	26	0.000668534	0.000288589	3.4656e-05	5	27	36	126	25	16	0	0	79	80	81	76	49	27	0.00079531	0.000288589	3.4656e-05	5	28	37	127	26	17	0	0	82	83	84	79	52	28	0.000922085	0.000288589	3.4656e-05	5	29	38	128	27	18	0	0	85	86	87	82	55	29	0.00104886	0.000288589	3.4656e-05	5	30	39	129	28	19	0	0	88	89	90	85	58	30	0.00117564	0.000288589	3.4656e-05	5	0	40	130	29	20	0	1	91	92	93	88	61	31	3.4656e-05	0.000415555	3.4656e-05	5	32	41	131	-1	21	1	0	94	95	96	97	64	32	0.000161432	0.000415555	3.4656e-05	5	33	42	132	31	22	0	0	98	99	100	94	68	33	0.000288207	0.000415555	3.4656e-05	5	34	43	133	32	23	0	0	101	102	103	98	71	34	0.000414983	0.000415555	3.4656e-05	5	35	44	134	33	24	0	0	104	105	106	101	74	35	0.000541758	0.000415555	3.4656e-05	5	36	45	135	34	25	0	0	107	108	109	104	77	36	0.000668534	0.000415555	3.4656e-05	5	37	46	136	35	26	0	0	110	111	112	107	80	37	0.00079531	0.000415555	3.4656e-05	5	38	47	137	36	27	0	0	113	114	115	110	83	38	0.000922085	0.000415555	3.4656e-05	5	39	48	138	37	28	0	0	116	117	118	113	86	39	0.00104886	0.000415555	3.4656e-05	5	40	49	139	38	29	0	0	119	120	121	116	89	40	0.00117564	0.000415555	3.4656e-05	5	0	50	140	39	30	0	1	122	123	124	119	92	41	3.4656e-05	0.000542522	3.4656e-05	5	42	51	141	-1	31	1	0	125	126	127	128	95	42	0.000161432	0.000542522	3.4656e-05	5	43	52	142	41	32	0	0	129	130	131	125	99	43	0.000288207	0.000542522	3.4656e-05	5	44	53	143	42	33	0	0	132	133	134	129	102	44	0.000414983	0.000542522	3.4656e-05	5	45	54	144	43	34	0	0	135	136	137	132	105	45	0.000541758	0.000542522	3.4656e-05	5	46	55	145	44	35	0	0	138	139	140	135	108	46	0.000668534	0.000542522	3.4656e-05	5	47	56	146	45	36	0	0	141	142	143	138	111	47	0.00079531	0.000542522	3.4656e-05	5	48	57	147	46	37	0	0	144	145	146	141	114	48	0.000922085	0.000542522	3.4656e-05	5	49	58	148	47	38	0	0	147	148	149	144	117	49	0.00104886	0.000542522	3.4656e-05	5	50	59	149	48	39	0	0	150	151	152	147	120	50	0.00117564	0.000542522	3.4656e-05	5	0	60	150	49	40	0	1	153	154	155	150	123	51	3.4656e-05	0.000669488	3.4656e-05	5	52	61	151	-1	41	1	0	156	157	158	159	126	52	0.000161432	0.000669488	3.4656e-05	5	53	62	152	51	42	0	0	160	161	162	156	130	53	0.000288207	0.000669488	3.4656e-05	5	54	63	153	52	43	0	0	163	164	165	160	133	54	0.000414983	0.000669488	3.4656e-05	5	55	64	154	53	44	0	0	166	167	168	163	136	55	0.000541758	0.000669488	3.4656e-05	5	56	65	155	54	45	0	0	169	170	171	166	139	56	0.000668534	0.000669488	3.4656e-05	5	57	66	156	55	46	0	0	172	173	174	169	142	57	0.00079531	0.000669488	3.4656e-05	5	58	67	157	56	47	0	0	175	176	177	172	145	58	0.000922085	0.000669488	3.4656e-05	5	59	68	158	57	48	0	0	178	179	180	175	148	59	0.00104886	0.000669488	3.4656e-05	5	60	69	159	58	49	0	0	181	182	183	178	151	60	0.00117564	0.000669488	3.4656e-05	5	0	70	160	59	50	0	1	184	185	186	181	154	61	3.4656e-05	0.000796455	3.4656e-05	5	62	71	161	-1	51	1	0	187	188	189	190	157	62	0.000161432	0.000796455	3.4656e-05	5	63	72	162	61	52	0	0	191	192	193	187	161	63	0.000288207	0.000796455	3.4656e-05	5	64	73	163	62	53	0	0	194	195	196	191	164	64	0.000414983	0.000796455	3.4656e-05	5	65	74	164	63	54	0	0	197	198	199	194	167	65	0.000541758	0.000796455	3.4656e-05	5	66	75	165	64	55	0	0	200	201	202	197	170	66	0.000668534	0.000796455	3.4656e-05	5	67	76	166	65	56	0	0	203	204	205	200	173	67	0.00079531	0.000796455	3.4656e-05	5	68	77	167	66	57	0	0	206	207	208	203	176	68	0.000922085	0.000796455	3.4656e-05	5	69	78	168	67	58	0	0	209	210	211	206	179	69	0.00104886	0.000796455	3.4656e-05	5	70	79	169	68	59	0	0	212	213	214	209	182	70	0.00117564	0.000796455	3.4656e-05	5	0	80	170	69	60	0	1	215	216	217	212	185	71	3.4656e-05	0.000923421	3.4656e-05	5	72	81	171	-1	61	1	0	218	219	220	221	188	72	0.000161432	0.000923421	3.4656e-05	5	73	82	172	71	62	0	0	222	223	224	218	192	73	0.000288207	0.000923421	3.4656e-05	5	74	83	173	72	63	0	0	225	226	227	222	195	74	0.000414983	0.000923421	3.4656e-05	5	75	84	174	73	64	0	0	228	229	230	225	198	75	0.000541758	0.000923421	3.4656e-05	5	76	85	175	74	65	0	0	231	232	233	228	201	76	0.000668534	0.000923421	3.4656e-05	5	77	86	176	75	66	0	0	234	235	236	231	204	77	0.00079531	0.000923421	3.4656e-05	5	78	87	177	76	67	0	0	237	238	239	234	207	78	0.000922085	0.000923421	3.4656e-05	5	79	88	178	77	68	0	0	240	241	242	237	210	79	0.00104886	0.000923421	3.4656e-05	5	80	89	179	78	69	0	0	243	244	245	240	213	80	0.00117564	0.000923421	3.4656e-05	5	0	90	180	79	70	0	1	246	247	248	243	216	81	3.4656e-05	0.00105039	3.4656e-05	5	82	91	181	-1	71	1	0	249	250	251	252	219	82	0.000161432	0.00105039	3.4656e-05	5	83	92	182	81	72	0	0	253	254	255	249	223	83	0.000288207	0.00105039	3.4656e-05	5	84	93	183	82	73	0	0	256	257	258	253	226	84	0.000414983	0.00105039	3.4656e-05	5	85	94	184	83	74	0	0	259	260	261	256	229	85	0.000541758	0.00105039	3.4656e-05	5	86	95	185	84	75	0	0	262	263	264	259	232	86	0.000668534	0.00105039	3.4656e-05	5	87	96	186	85	76	0	0	265	266	267	262	235	87	0.00079531	0.00105039	3.4656e-05	5	88	97	187	86	77	0	0	268	269	270	265	238	88	0.000922085	0.00105039	3.4656e-05	5	89	98	188	87	78	0	0	271	272	273	268	241	89	0.00104886	0.00105039	3.4656e-05	5	90	99	189	88	79	0	0	274	275	276	271	244	90	0.00117564	0.00105039	3.4656e-05	5	0	100	190	89	80	0	1	277	278	279	274	247	91	3.4656e-05	0.00117735	3.4656e-05	4	92	191	-1	81	1	0	280	281	282	250	92	0.000161432	0.00117735	3.4656e-05	4	93	192	91	82	0	0	283	284	280	254	93	0.000288207	0.00117735	3.4656e-05	4	94	193	92	83	0	0	285	286	283	257	94	0.000414983	0.00117735	3.4656e-05	4	95	194	93	84	0	0	287	288	285	260	95	0.000541758	0.00117735	3.4656e-05	4	96	195	94	85	0	0	289	290	287	263	96	0.000668534	0.00117735	3.4656e-05	4	97	196	95	86	0	0	291	292	289	266	97	0.00079531	0.00117735	3.4656e-05	4	98	197	96	87	0	0	293	294	291	269	98	0.000922085	0.00117735	3.4656e-05	4	99	198	97	88	0	0	295	296	293	272	99	0.00104886	0.00117735	3.4656e-05	4	100	199	98	89	0	0	297	298	295	275	100	0.00117564	0.00117735	3.4656e-05	4	0	200	99	90	0	1	299	300	297	278	101	3.4656e-05	3.4656e-05	0.000161472	5	102	111	201	-1	1	1	0	301	302	303	304	3	102	0.000161432	3.4656e-05	0.000161472	5	103	112	202	101	2	0	0	305	306	307	301	7	103	0.000288207	3.4656e-05	0.000161472	5	104	113	203	102	3	0	0	308	309	310	305	10	104	0.000414983	3.4656e-05	0.000161472	5	105	114	204	103	4	0	0	311	312	313	308	13	105	0.000541758	3.4656e-05	0.000161472	5	106	115	205	104	5	0	0	314	315	316	311	16	106	0.000668534	3.4656e-05	0.000161472	5	107	116	206	105	6	0	0	317	318	319	314	19	107	0.00079531	3.4656e-05	0.000161472	5	108	117	207	106	7	0	0	320	321	322	317	22	108	0.000922085	3.4656e-05	0.000161472	5	109	118	208	107	8	0	0	323	324	325	320	25	109	0.00104886	3.4656e-05	0.000161472	5	110	119	209	108	9	0	0	326	327	328	323	28	110	0.00117564	3.4656e-05	0.000161472	5	0	120	210	109	10	0	1	329	330	331	326	31	111	3.4656e-05	0.000161622	0.000161472	6	112	121	211	-1	101	11	1	0	332	333	334	335	302	34	112	0.000161432	0.000161622	0.000161472	6	113	122	212	111	102	12	0	0	336	337	338	332	306	38	113	0.000288207	0.000161622	0.000161472	6	114	123	213	112	103	13	0	0	339	340	341	336	309	41	114	0.000414983	0.000161622	0.000161472	6	115	124	214	113	104	14	0	0	342	343	344	339	312	44	115	0.000541758	0.000161622	0.000161472	6	116	125	215	114	105	15	0	0	345	346	347	342	315	47	116	0.000668534	0.000161622	0.000161472	6	117	126	216	115	106	16	0	0	348	349	350	345	318	50	117	0.00079531	0.000161622	0.000161472	6	118	127	217	116	107	17	0	0	351	352	353	348	321	53	118	0.000922085	0.000161622	0.000161472	6	119	128	218	117	108	18	0	0	354	355	356	351	324	56	119	0.00104886	0.000161622	0.000161472	6	120	129	219	118	109	19	0	0	357	358	359	354	327	59	120	0.00117564	0.000161622	0.000161472	6	0	130	220	119	110	20	0	1	360	361	362	357	330	62	121	3.4656e-05	0.000288589	0.000161472	6	122	131	221	-1	111	21	1	0	363	364	365	366	333	65	122	0.000161432	0.000288589	0.000161472	6	123	132	222	121	112	22	0	0	367	368	369	363	337	69	123	0.000288207	0.000288589	0.000161472	6	124	133	223	122	113	23	0	0	370	371	372	367	340	72	124	0.000414983	0.000288589	0.000161472	6	125	134	224	123	114	24	0	0	373	374	375	370	343	75	125	0.000541758	0.000288589	0.000161472	6	126	135	225	124	115	25	0	0	376	3
[...]
         <CellData Scalars="Cell Data">
             <DataArray type="Float32" Name="radii" format="ascii">
2	1	2.03255e-05	2.53109e-05	7.38104e-05	1.09177e-13	1.1028e-15	2	11	1	2.1399e-05	2.53109e-05	7.27271e-05	9.52979e-14	9.62605e-16	3	101	1	2.51587e-05	2.53109e-05	6.94558e-05	5.78909e-14	5.84757e-16	4	-1	1	2.12726e-05	2.53109e-05	6.46648e-05	0	0	5	3	2	2.95077e-05	2.03255e-05	7.81254e-05	6.95349e-14	7.02373e-16	6	12	2	2.51984e-05	2.03255e-05	6.29412e-05	3.56138e-14	3.59735e-16	7	102	2	2.11701e-05	2.03255e-05	7.55159e-05	1.13629e-13	1.14777e-15	8	4	3	2.91782e-05	2.95077e-05	6.90609e-05	7.6538e-14	7.73111e-16	9	13	3	2.7762e-05	2.95077e-05	6.83036e-05	5.41571e-14	5.47041e-16	10	103	3	2.78352e-05	2.95077e-05	6.44653e-05	8.37753e-14	8.46216e-16	11	5	4	2.23693e-05	2.91782e-05	6.62545e-05	5.76588e-14	5.82413e-16	12	14	4	3.22716e-05	2.91782e-05	6.50874e-05	4.31178e-14	4.35534e-16	13	104	4	2.47821e-05	2.91782e-05	7.44845e-05	6.25761e-14	6.32082e-16	14	6	5	2.53327e-05	2.23693e-05	6.59977e-05	8.56593e-14	8.65245e-16	15	15	5	2.30403e-05	2.23693e-05	6.8809e-05	1.29309e-13	1.30615e-15	16	105	5	2.72752e-05	2.23693e-05	6.65454e-05	3.9809e-14	4.02111e-16	17	7	6	2.71712e-05	2.53327e-05	6.5059e-05	1.56568e-13	1.58149e-15	18	16	6	1.70199e-05	2.53327e-05	6.46243e-05	1.108e-13	1.11919e-15	19	106	6	3.03955e-05	2.53327e-05	6.39885e-05	6.97659e-14	7.04707e-16	20	8	7	2.38324e-05	2.71712e-05	6.74455e-05	3.61217e-14	3.64865e-16	21	17	7	2.02187e-05	2.71712e-05	6.85585e-05	7.85416e-14	7.93349e-16	22	107	7	2.44203e-05	2.71712e-05	7.35292e-05	8.18091e-14	8.26355e-16	23	9	8	2.05939e-05	2.38324e-05	6.85066e-05	5.93203e-14	5.99195e-16	24	18	8	2.09185e-05	2.38324e-05	6.64593e-05	1.30972e-13	1.32295e-15	25	108	8	2.91011e-05	2.38324e-05	6.77546e-05	5.38415e-14	5.43853e-16	26	10	9	2.26741e-05	2.05939e-05	6.92373e-05	8.92206e-14	9.01218e-16	27	19	9	2.27484e-05	2.05939e-05	7.06698e-05	4.53723e-14	4.58306e-16	28	109	9	3.0056e-05	2.05939e-05	6.06922e-05	5.50156e-14	5.55714e-16	29	0	10	2.53133e-05	2.26741e-05	6.30867e-05	0	0	30	20	10	2.68377e-05	2.26741e-05	6.52234e-05	4.38719e-14	4.43151e-16	31	110	10	2.4258e-05	2.26741e-05	6.80611e-05	7.14233e-14	7.21448e-16	32	12	11	2.51984e-05	2.1399e-05	6.83725e-05	5.45198e-14	5.50705e-16	33	21	11	3.65676e-05	2.1399e-05	7.15797e-05	6.52032e-14	6.58618e-16	34	111	11	2.9254e-05	2.1399e-05	6.11376e-05	4.45778e-14	4.50281e-16	35	-1	11	2.12726e-05	2.1399e-05	6.33059e-05	0	0	36	13	12	2.7762e-05	2.51984e-05	7.00418e-05	9.29763e-14	9.39155e-16	37	22	12	2.39766e-05	2.51984e-05	6.19747e-05	7.77691e-14	7.85546e-16	38	112	12	2.72291e-05	2.51984e-05	6.88329e-05	1.71635e-13	1.73369e-15	39	14	13	3.22716e-05	2.7762e-05	6.38504e-05	5.11367e-14	5.16533e-16	40	23	13	2.63955e-05	2.7762e-05	6.27467e-05	1.69568e-13	1.71281e-15	41	113	13	1.93906e-05	2.7762e-05	6.60797e-05	9.249e-14	9.34242e-16	42	15	14	2.30403e-05	3.22716e-05	6.59258e-05	7.57644e-14	7.65297e-16	43	24	14	3.34143e-05	3.22716e-05	6.90198e-05	4.01384e-14	4.05438e-16	44	114	14	2.45898e-05	3.22716e-05	6.08548e-05	9.30601e-14	9.40001e-16	45	16	15	1.70199e-05	2.30403e-05	7.25463e-05	1.59682e-13	1.61295e-15	46	25	15	2.30595e-05	2.30403e-05	7.06774e-05	7.25261e-14	7.32587e-16	47	115	15	2.93081e-05	2.30403e-05	6.2762e-05	3.5254e-14	3.56101e-16	48	17	16	2.02187e-05	1.70199e-05	7.25349e-05	1.71209e-13	1.72938e-15	49	26	16	1.86426e-05	1.70199e-05	6.36198e-05	8.3901e-14	8.47485e-16	50	116	16	2.33744e-05	1.70199e-05	7.18247e-05	3.9518e-14	3.99171e-16	51	18	17	2.09185e-05	2.02187e-05	7.1617e-05	6.41512e-14	6.47992e-16	52	27	17	2.4237e-05	2.02187e-05	6.89015e-05	9.40388e-14	9.49887e-16	53	117	17	1.94054e-05	2.02187e-05	6.17185e-05	1.11743e-13	1.12872e-15	54	19	18	2.27484e-05	2.09185e-05	7.84776e-05	7.65755e-14	7.7349e-16	55	28	18	2.05341e-05	2.09185e-05	7.01106e-05	5.77904e-14	5.83741e-16	56	118	18	2.47265e-05	2.09185e-05	6.68332e-05	4.76305e-14	4.81116e-16	57	20	19	2.68377e-05	2.27484e-05	7.75981e-05	1.25617e-13	1.26886e-15	58	29	19	2.84677e-05	2.27484e-05	6.91672e-05	1.17348e-13	1.18533e-15	59	119	19	3.8069e-05	2.27484e-05	7.20601e-05	2.13177e-13	2.1533e-15	60	0	20	2.53133e-05	2.68377e-05	6.61717e-05	0	0	61	30	20	2.00921e-05	2.68377e-05	7.03864e-05	8.11393e-14	8.19588e-16	62	120	20	3.12971e-05	2.68377e-05	6.83392e-05	7.9932e-14	8.07394e-16	63	22	21	2.39766e-05	3.65676e-05	7.38419e-05	9.92166e-14	1.00219e-15	64	31	21	2.48419e-05	3.65676e-05	6.6841e-05	1.1741e-13	1.18596e-15	65	121	21	3.04663e-05	3.65676e-05	6.39531e-05	4.48209e-14	4.52737e-16	66	-1	21	2.12726e-05	3.65676e-05	7.04121e-05	0	0	67	23	22	2.63955e-05	2.39766e-05	6.51915e-05	7.09488e-14	7.16654e-16	68	32	22	2.0198e-05	2.39766e-05	6.39761e-05	5.83309e-14	5.89201e-16	69	122	22	2.95846e-05	2.39766e-05	7.48913e-05	2.05469e-13	2.07544e-15	70	24	23	3.34143e-05	2.63955e-05	7.30309e-05	1.25536e-13	1.26804e-15	71	33	23	2.1531e-05	2.63955e-05	7.00102e-05	7.65882e-14	7.73618e-16	72	123	23	3.39357e-05	2.63955e-05	6.92493e-05	1.44507e-13	1.45967e-15	73	25	24	2.30595e-05	3.34143e-05	6.49531e-05	1.01992e-13	1.03022e-15	74	34	24	2.16615e-05	3.34143e-05	7.0789e-05	9.59752e-14	9.69446e-16	75	124	24	2.41157e-05	3.34143e-05	6.94229e-05	1.32216e-13	1.33551e-15	76	26	25	1.86426e-05	2.30595e-05	6.94363e-05	8.22485e-14	8.30793e-16	77	35	25	3.1638e-05	2.30595e-05	7.04959e-05	9.45574e-14	9.55125e-16	78	125	25	3.05956e-05	2.30595e-05	6.55163e-05	1.18255e-13	1.19449e-15	79	27	26	2.4237e-05	1.86426e-05	7.37072e-05	7.58186e-14	7.65844e-16	80	36	26	2.49699e-05	1.86426e-05	6.85888e-05	5.66143e-14	5.71862e-16	81	126	26	2.63707e-05	1.86426e-05	6.95216e-05	8.33785e-14	8.42207e-16	82	28	27	2.05341e-05	2.4237e-05	6.58471e-05	1.02722e-13	1.0376e-15	83	37	27	3.04013e-05	2.4237e-05	6.45095e-05	2.31676e-13	2.34016e-15	84	127	27	2.27232e-05	2.4237e-05	7.59402e-05	1.39964e-13	1.41378e-15	85	29	28	2.84677e-05	2.05341e-05	7.48573e-05	7.22901e-14	7.30203e-16	86	38	28	2.65482e-05	2.05341e-05	6.71341e-05	9.70524e-14	9.80327e-16	87	128	28	2.0513e-05	2.05341e-05	7.5456e-05	1.11069e-13	1.12191e-15	88	30	29	2.00921e-05	2.84677e-05	7.03222e-05	9.57245e-14	9.66914e-16	89	39	29	2.88786e-05	2.84677e-05	7.92408e-05	1.84055e-13	1.85914e-15	90	129	29	2.39251e-05	2.84677e-05	7.23883e-05	2.82141e-13	2.84991e-15	91	0	30	2.53133e-05	2.00921e-05	7.26705e-05	0	0	92	40	30	3.15108e-05	2.00921e-05	7.40502e-05	1.86061e-13	1.8794e-15	93	130	30	2.42579e-05	2.00921e-05	6.83694e-05	1.82463e-13	1.84306e-15	94	32	31	2.0198e-05	2.48419e-05	7.88164e-05	1.51612e-13	1.53143e-15	95	41	31	3.10716e-05	2.48419e-05	7.01743e-05	8.50756e-14	8.5935e-16	96	131	31	1.92943e-05	2.48419e-05	7.20571e-05	3.36718e-14	3.4012e-16	97	-1	31	2.12726e-05	2.48419e-05	7.60122e-05	0	0	98	33	32	2.1531e-05	2.0198e-05	7.65377e-05	1.11774e-13	1.12903e-15	99	42	32	1.7951e-05	2.0198e-05	7.03526e-05	4.75217e-14	4.80017e-16	100	132	32	3.1305e-05	2.0198e-05	6.84559e-05	1.42154e-13	1.4359e-15	101	34	33	2.16615e-05	2.1531e-05	6.48039e-05	6.51431e-14	6.58011e-16	102	43	33	2.369e-05	2.1531e-05	7.738e-05	5.22821e-14	5.28102e-16	103	133	33	2.49857e-05	2.1531e-05	6.73563e-05	9.52392e-14	9.62012e-16	104	35	34	3.1638e-05	2.16615e-05	6.8341e-05	4.05434e-14	4.09529e-16	105	44	34	2.76781e-05	2.16615e-05	6.38293e-05	1.11196e-13	1.12319e-15	106	134	34	2.70071e-05	2.16615e-05	7.77368e-05	5.84889e-14	5.90797e-16	107	36	35	2.49699e-05	3.1638e-05	6.94083e-05	1.09829e-13	1.10938e-15	108	45	35	3.63347e-05	3.1638e-05	6.95193e-05	6.65459e-14	6.72181e-16	109	135	35	2.30835e-05	3.1638e-05	7.84238e-05	7.26369e-14	7.33705e-16	110	37	36	3.04013e-05	2.49699e-05	6.67181e-05	1.4889e-13	1.50394e-15	111	46	36	2.91143e-05	2.49699e-05	6.89885e-05	7.31237e-14	7.38623e-16	112	136	36	2.14133e-05	2.49699e-05	6.93122e-05	8.86667e-14	8.95623e-16	113	38	37	2.65482e-05	3.04013e-05	6.63491e-05	4.07836e-14	4.11955e-16	114	47	37	2.83142e-05	3.04013e-05	7.42384e-05	1.14028e-13	1.1518e-15	115	137	37	2.66716e-05	3.04013e-05	6.78906e-05	1.2044e-13	1.21656e-15	116	39	38	2.88786e-05	2.65482e-05	7.89881e-05	1.19252e-13	1.20457e-15	117	48	38	2.0506e-05	2.65482e-05	7.09672e-05	3.58442e-14	3.62062e-16	118	138	38	2.68128e-05	2.65482e-05	6.22208e-05	1.87817e-13	1.89714e-15	119	40	39	3.15108e-05	2.88786e-05	6.58205e-05	7.16038e-14	7.23271e-16	120	49	39	2.89055e-05	2.88786e-05	6.18145e-05	6.20436e-14	6.26703e-16	121	139	39	3.61074e-05	2.88786e-05	7.36591e-05	2.39158e-13	2.41574e-15	122	0	40	2.53133e-05	3.15108e-05	6.55366e-05	0	0	123	50	40	3.07992e-05	3.15108e-05	6.53895e-05	1.01027e-13	1.02047e-15	124	140	40	2.47026e-05	3.15108e-05	6.88713e-05	8.88252e-14	8.97224e-16	125	42	41	1.7951e-05	3.10716e-05	7.25779e-05	5.40186e-14	5.45642e-16	126	51	41	2.89876e-05	3.10716e-05	7.30766e-05	6.22329e-14	6.28615e-16	127	141	41	3.19571e-05	3.10716e-05	6.61736e-05	1.04209e-13	1.05262e-15	128	-1	41	2.12726e-05	3.10716e-05	7.11323e-05	0	0	129	43	42	2.369e-05	1.7951e-05	7.62087e-05	8.56204e-14	8.64852e-16	130	52	42	3.03184e-05	1.7951e-05	6.30344e-05	5.21585e-14	5.26854e-16	131	142	42	2.93636e-05	1.7951e-05	7.28159e-05	8.20027e-14	8.2831e-16	132	44	43	2.76781e-05	2.369e-05	7.62682e-05	1.87621e-13	1.89516e-15	133	53	43	2.32555e-05	2.369e-05	6.4792e-05	7.34924e-14	7.42347e-16	134	143	43	1.83037e-05	2.369e-05	7.27029e-05	1.75022e-13	1.7679e-15	135	45	44	3.63347e-05	2.76781e-05	7.47334e-05	7.68088e-14	7.75846e-16	136	54	44	2.43985e-05	2.76781e-05	7.63516e-05	2.68151e-13	2.7086e-15	137	144	44	1.74278e-05	2.76781e-05	7.77427e-05	1.35186e-13	1.36552e-15	138	46	45	2.91143e-05	3.63347e-05	6.8074e-05	1.94927e-13	1.96896e-15	139	55	45	2.90497e-05	3.63347e-05	7.22131e-05	1.04007e-13	1.05058e-15	140	145	45	2.19741e-05	3.63347e-05	6.45803e-05	6.40596e-14	6.47067e-16	141	47	46	2.83142e-05	2.91143e-05	7.57164e-05	9.03524e-14	9.12651e-16	142	56	46	2.65807e-05	2.91143e-05	7.18698e-05	1.06694e-13	1.07772e-15	143	146	46	2.9318e-05	2.91143e-05	6.64022e-05	3.54524e-14	3.58105e-16	144	48	47	2.0506e-05	2.83142e-05	6.47187e-05	1.68147e-13	1.69845e-15	145	57	47	2.41682e-05	2.83142e-05	7.68429e-05	3.4828e-14	3.51798e-16	146	147	47	2.43939e-05	2.83142e-05	6.76856e-05	2.12136e-13	2.14279e-15	147	49	48	2.89055e-05	2.0506e-05	6.20976e-05	1.06879e-13	1.07959e-15	148	58	48	2.14829e-05	2.0506e-05	6.86066e-05	5.3666e-14	5.42081e-16	149	148	48	2.31581e-05	2.0506e-05	7.00668e-05	7.8818e-14	7.96141e-16	150	50	49	3.07992e-05	2.89055e-05	6.11759e-05	8.2295e-14	8.31263e-16	151	59	49	2.91974e-05	2.89055e-05	7.02536e-05	1.25835e-13	1.27106e-15	152	149	49	2.12525e-05	2.89055e-05	7.07968e-05	1.43605e-13	1.45056e-15	153	0	50	2.53133e-05	3.07992e-05	7.23445e-05	0	0	154	60	50	2.08656e-05	3.07992e-05	6.82731e-05	3.00889e-14	3.03928e-16	155	150	50	2.32748e-05	3.07992e-05	6.22298e-05	1.77382e-13	1.79174e-15	156	52	51	3.03184e-05	2.89876e-05	6.37385e-05	3.6699e-14	3.70697e-16	157	61	51	2.41493e-05	2.89876e-05	6.89491e-05	1.62599e-13	1.64241e-15	158	151	51	2.03683e-05	2.89876e-05	6.74159e-05	1.09636e-13	1.10744e-15	159	-1	51	2.12726e-05	2.89876e-05	6.44598e-05	0	0	160	53	52	2.32555e-05	3.03184e-05	6.45794e-05	1.3411e-13	1.35465e-15	161	62	52	1.90475e-05	3.03184e-05	7.03324e-05	7.0625e-14	7.13384e-16	162	152	52	2.0607e-05	3.03184e-05	7.2764e-05	9.89958e-14	9.99958e-16	163	54	53	2.43985e-05	2.32555e-05	7.02729e-05	4.97359e-14	5.02383e-16	164	63	53	2.26253e-05	2.32555e-05	6.67574e-05	1.03928e-13	1.04978e-15	165	153	53	2.00756e-05	2.32555e-05	6.80328e-05	7.75683e-14	7.83518e-16	166	55	54	2.90497e-05	2.43985e-05	7.12792e-05	9.55034e-14	9.64681e-16	167	64	54	2.65897e-05	2.43985e-05	6.38506e-05	3.70045e-14	3.73783e-16	168	154	54	2.02615e-05	2.43985e-05	7.53314e-05	1.28546e-13	1.29845e-15	169	56	55	2.65807e-05	2.90497e-05	7.47671e-05	7.61098e-14	7.68786e-16	170	65	55	2.33275e-05	2.90497e-05	6.88145e-05	7.00706e-14	7.07784e-16	171	155	55	2.65346e-05	2.90497e-05	7.06176e-05	1.20155e-13	1.21368e-15	172	57	56	2.41682e-05	2.65807e-05	7.34636e-05	1.0059e-13	1.01605e-15	173	66	56	2.03793e-05	2.65807e-05	7.31865e-05	1.21448e-13	1.22675e-15	174	156	56	1.99984e-05	2.65807e-05	6.96327e-05	1.46551e-13	1.48032e-15	175	58	57	2.14829e-05	2.41682e-05	7.04288e-05	5.53807e-14	5.59402e-16	176	67	57	1.54716e-05	2.41682e-05	7.04603e-05	1.05103e-13	1.06164e-15	177	157	57	2.91172e-05	2.41682e-05	6.30024e-05	7.28235e-14	7.35591e-16	178	59	58	2.91974e-05	2.14829e-05	7.45832e-05	7.12388e-14	7.19584e-16	179	68	58	2.06474e-05	2.14829e-05	6.32072e-05	1.00447e-13	1.01462e-15	180	158	58	3.50472e-05	2.14829e-05	7.22272e-05	8.33662e-14	8.42083e-16	181	60	59	2.08656e-05	2.91974e-05	7.39486e-05	9.70406e-14	9.80209e-16	182	69	59	2.86112e-05	2.91974e-05	6.66105e-05	7.08768e-14	7.15927e-16	183	159	59	2.33472e-05	2.91974e-05	6.38209e-05	7.61692e-14	7.69386e-16	184	0	60	2.53133e-05	2.08656e-05	7.42728e-05	0	0	185	70	60	3.10925e-05	2.08656e-05	7.07909e-05	1.07844e-13	1.08933e-15	186	160	60	2.05412e-05	2.08656e-05	6.34389e-05	7.36158e-14	7.43594e-16	187	62	61	1.90475e-05	2.41493e-05	7.04984e-05	6.19608e-14	6.25866e-16	188	71	61	1.88322e-05	2.41493e-05	6.61431e-05	1.33118e-13	1.34462e-15	189	161	61	2.28745e-05	2.41493e-05	7.44163e-05	3.55251e-14	3.58839e-16	190	-1	61	2.12726e-05	2.41493e-05	6.81774e-05	0	0	191	63	62	2.26253e-05	1.90475e-05	6.3553e-05	5.79017e-14	5.84865e-16	192	72	62	2.66672e-05	1.90475e-05	7.00513e-05	4.41004e-14	4.45458e-16	193	162	62	2.16914e-05	1.90475e-05	6.76652e-05	1.07475e-13	1.08561e-15	194	64	63	2.65897e-05	2.26253e-05	7.23948e-05	1.13393e-13	1.14538e-15	195	73	63	3.04101e-05	2.26253e-05	7.35195e-05	4.99885e-14	5.04935e-16	196	163	63	1.7893e-05	2.26253e-05	7.49504e-05	1.46573e-13	1.48054e-15	197	65	64	2.33275e-05	2.65897e-05	7.13622e-05	1.35036e-13	1.364e-15	198	74	64	2.44351e-05	2.65897e-05	7.43404e-05	1.16823e-13	1.18003e-15	199	164	64	3.39692e-05	2.65897e-05	7.2616e-05	6.50433e-14	6.57003e-16	200	66	65	2.03793e-05	2.33275e-05	7.88671e-05	1.39165e-13	1.40571e-15	201	75	65	2.20131e-05	2.33275e-05	6.43626e-05	1.5165e-13	1.53182e-15	202	165	65	1.72607e-05	2.33275e-05	7.09248e-05	9.31598e-14	9.41008e-16	203	67	66	1.54716e-05	2.03793e-05	7.16263e-05	8.27307e-14	8.35664e-16	204	76	66	2.92941e-05	2.03793e-05	6.64012e-05	1.83552e-13	1.85406e-15	205	166	66	2.4451e-05	2.03793e-05	6.9037e-05	1.10857e-13	1.11977e-15	206	68	67	2.06474e-05	1.54716e-05	7.04291e-05	7.63912e-14	7.71628e-16	207	77	67	2.01862e-05	1.54716e-05	6.51343e-05	3.62401e-14	3.66062e-16	208	167	67	2.0413e-05	1.54716e-05	7.45182e-05	7.77776e-14	7.85633e-16	209	69	68	2.86112e-05	2.06474e-05	6.56655e-05	3.81495e-14	3.85349e-16	210	78	68	3.45442e-05	2.06474e-05	6.37348e-05	8.87142e-14	8.96103e-16	211	168	68	2.64501e-05	2.06474e-05	7.27942e-05	6.64955e-14	6.71672e-16	212	70	69	3.10925e-05	2.86112e-05	6.62051e-05	5.75816e-14	5.81632e-16	213	79	69	1.77597e-05	2.86112e-05	7.30297e-05	5.14776e-14	5.19976e-16	214	169	69	3.34878e-05	2.86112e-05	6.13189e-05	1.07678e-13	1.08766e-15	215	0	70	2.53133e-05	3.10925e-05	6.7401e-05	0	0	216	80	70	3.32239e-05	3.10925e-05	6.63683e-05	3.76249e-14	3.8005e-16	217	170	70	2.09642e-05	3.10925e-05	6.91554e-05	6.78886e-14	6.85744e-16	218	72	71	2.66672e-05	1.88322e-05	7.72492e-05	1.2919e-13	1.30495e-15	219	81	71	2.89981e-05	1.88322e-05	6.50476e-05	4.98506e-14	5.03542e-16	220	171	71	1.67092e-05	1.88322e-05	6.43662e-05	2.51426e-14	2.53966e-16	221	-1	71	2.12726e-05	1.88322e-05	6.6168e-05	0	0	222	73	72	3.04101e-05	2.66672e-05	7.37559e-05	4.46599e-14	4.5111e-16	223	82	72	2.95334e-05	2.66672e-05	7.20796e-05	1.49404e-13	1.50913e-15	224	172	72	3.15733e-05	2.66672e-05	7.38939e-05	1.37206e-13	1.38591e-15	225	74	73	2.44351e-05	3.04101e-05	7.03601e-05	8.12426e-14	8.20632e-16	226	83	73	2.98059e-05	3.04101e-05	6.45804e-05	9.15023e-14	9.24265e-16	227	173	73	3.20537e-05	3.04101e-05	6.18356e-05	6.55364e-14	6.61984e-16	228	75	74	2.20131e-05	2.44351e-05	6.97811e-05	2.04917e-13	2.06987e-15	229	84	74	2.07876e-05	2.44351e-05	7.88133e-05	7.83789e-14	7.91707e-16	230	174	74	2.084e-05	2.44351e-05	7.19372e-05	5.20584e-14	5.25843e-16	231	76	75	2.92941e-05	2.20131e-05	7.65295e-05	2.50554e-13	2.53085e-15	232	85	75	2.09376e-05	2.20131e-05	6.94421e-05	2.32836e-13	2.35188e-15	233	175	75	3.24863e-05	2.20131e-05	7.30775e-05	1.22401e-13	1.23638e-15	234	77	76	2.01862e-05	2.92941e-05	7.18012e-05	1.45665e-13	1.47137e-15	235	86	76	2.70177e-05	2.92941e-05	6.82151e-05	5.23772e-14	5.29063e-16	236	176	76	2.00871e-05	2.92941e-05	6.14536e-05	8.99164e-14	9.08246e-16	237	78	77	3.45442e-05	2.01862e-05	7.8249e-05	1.3461e-13	1.35969e-15	238	87	77	2.84547e-05	2.01862e-05	6.54492e-05	1.10251e-13	1.11365e-15	239	177	77	3.07412e-05	2.01862e-05	6.49847e-05	9.21594e-14	9.30903e-16	240	79	78	1.77597e-05	3.45442e-05	7.93114e-05	1.00573e-13	1.01589e-15	241	88	78	2.80609e-05	3.45442e-05	6.64496e-05	7.08898e-14	7.16058e-16	242	178	78	2.31522e-05	3.45442e-05	7.60285e-05	1.09417e-13	1.10522e-15	243	80	79	3.32239e-05	1.77597e-05	6.62209e-05	1.62992e-13	1.64639e-15	244	89	79	2.93052e-05	1.77597e-05	7.02807e-05	9.0858e-14	9.17757e-16	245	179	79	2.40533e-05	1.77597e-05	6.34712e-05	7.85493e-14	7.93427e-16	246	0	80	2.53133e-05	3.32239e-05	7.08353e-05	0	0	247	90	80	2.67588e-05	3.32239e-05	6.67804e-05	1.4734e-13	1.48828e-15	248	180	80	1.99173e-05	3.32239e-05	6.75986e-05	1.40941e-13	1.42364e-15	249	82	81	2.95334e-05	2.89981e-05	7.22025e-05	8.16776e-14	8.25026e-16	250	91	81	3.07923e-05	2.89981e-05	7.07174e-05	6.43564e-14	6.50065e-16	251	181	81	2.72569e-05	2.89981e-05	6.51035e-05	1.38839e-13	1.40242e-15	252	-1	81	2.12726e-05	2.89981e-05	7.25867e-05	0	0	253	83	82	2.98059e-05	2.95334e-05	6.08405e-05	6.60245e-14	6.66914e-16	254	92	82	2.05565e-05	2.95334e-05	6.83821e-05	9.49598e-14	9.5919e-16	255	182	82	2.62665e-05	2.95334e-05	7.21963e-05	1.8763e-13	1.89526e-15	256	84	83	2.07876e-05	2.98059e-05	7.48145e-05	1.44091e-13	1.45546e-15	257	93	83	2.67152e-05	2.98059e-05	6.09861e-05	9.28549e-14	9.37929e-16	258	183	83	2.23047e-05	2.98059e-05	6.58252e-05	7.48704e-14	7.56266e-16	259	85	84	2.09376e-05	2.07876e-05	6.91878e-05	7.10224e-14	7.17398e-16	260	94	84	1.93241e-05	2.07876e-05	7.99423e-05	1.48786e-13	1.50289e-15	261	184	84	3.04957e-05	2.07876e-05	6.7155e-05	1.41773e-13	1.43205e-15	262	86	85	2.70177e-05	2.09376e-05	6.44587e-05	6.16129e-14	6.22352e-16	263	95	85	2.7928e-05	2.09376e-05	6.82066e-05	8.54205e-14	8.62833e-16	264	185	85	2.762e-05	2.09376e-05	6.98591e-05	5.13025e-14	5.18208e-16	265	87	86	2.84547e-05	2.70177e-05	7.82007e-05	1.77625e-13	1.7942e-15	266	96	86	3.18377e-05	2.70177e-05	6.20068e-05	1.15672e-13	1.16841e-15	267	186	86	3.29954e-05	2.70177e-05	7.00213e-05	4.96075e-14	5.01086e-16	268	88	87	2.80609e-05	2.84547e-05	6.73389e-05	9.14649e-14	9.23887e-16	269	97	87	2.14757e-05	2.84547e-05	7.32511e-05	3.7971e-14	3.83545e-16	270	187	87	3.42615e-05	2.84547e-05	6.11175e-05	7.61272e-14	7.68962e-16	271	89	88	2.93052e-05	2.80609e-05	6.82579e-05	1.34807e-13	1.36168e-15	272	98	88	2.80224e-05	2.80609e-05	6.72988e-05	6.98442e-14	7.05497e-16	273	188	88	2.58948e-05	2.80609e-05	7.49498e-05	9.10166e-14	9.1936e-16	274	90	89	2.67588e-05	2.93052e-05	6.60946e-05	1.67956e-13	1.69652e-15	275	99	89	1.9267e-05	2.93052e-05	7.57742e-05	5.55804e-14	5.61419e-16	276	189	89	2.7532e-05	2.93052e-05	7.74977e-05	5.35746e-14	5.41158e-16	277	0	90	2.53133e-05	2.67588e-05	6.78753e-05	0	0	278	100	90	3.50445e-05	2.67588e-05	7.31324e-05	5.46886e-14	5.5241e-16	279	190	90	2.03414e-05	2.67588e-05	6.45203e-05	1.25939e-13	1.27211e-15	280	92	91	2.05565e-05	3.07923e-05	6.34385e-05	8.74625e-14	8.83459e-16	281	191	91	2.70565e-05	3.07923e-05	7.49777e-05	1.36598e-13	1.37978e-15	282	-1	91	2.12726e-05	3.07923e-05	7.08354e-05	0	0	283	93	92	2.67152e-05	2.05565e-05	7.9226e-05	7.32652e-14	7.40053e-16	284	192	92	2.0467e-05	2.05565e-05	6.65884e-05	7.28902e-14	7.36265e-16	285	94	93	1.93241e-05	2.67152e-05	7.94339e-05	1.27892e-13	1.29184e-15	286	193	93	2.60425e-05	2.67152e-05	6.93507e-05	1.13837e-13	1.14986e-15	287	95	94	2.7928e-05	1.93241e-05	7.34554e-05	1.15506e-13	1.16673e-15	288	194	94	2.78113e-05	1.93241e-05	6.42866e-05	5.60595e-14	5.66257e-16	289	96	95	3.18377e-05	2.7928e-05	6.81224e-05	3.75731e-14	3.79527e-16	290	195	95	1.99114e-05	2.7928e-05	6.60218e-05	5.11744e-14	5.16913e-16	291	97	96	2.14757e-05	3.18377e-05	6.85109e-05	6.1642e-14	6.22647e-16	292	196	96	2.65736e-05	3.18377e-05	6.54717e-05	1.01532e-13	1.02558e-15	293	98	97	2.80224e-05	2.14757e-0