<VTKFile byte_order="LittleEndian" type="PolyData" version="0.1">
        <PolyData>
            <Piece NumberOfLines="3" NumberOfPoints="1331">
                <Points>
                   <DataArray Name="coords" NumberOfComponents="3" type="Float64">0 	 0 	 0	0 	 100 	 0	0 	 200 	 0	0 	 300 	 0	0 	 400 	 0	0 	 500 	 0	0 	 600 	 0	0 	 700 	 0	0 	 800 	 0	0 	 900 	 0	0 	 1000 	 0	100 	 0 	 0	100 	 100 	 0	100 	 200 	 0	100 	 300 	 0	100 	 400 	 0	100 	 500 	 0	100 	 600 	 0	100 	 700 	 0	100 	 800 	 0	100 	 900 	 0	100 	 1000 	 0	200 	 0 	 0	200 	 100 	 0	200 	 200 	 0	200 	 300 	 0	200 	 400 	 0	200 	 500 	 0	200 	 600 	 0	200 	 700 	 0	200 	 800 	 0	200 	 900 	 0	200 	 1000 	 0	300 	 0 	 0	300 	 100 	 0	300 	 200 	 0	300 	 300 	 0	300 	 400 	 0	300 	 500 	 0	300 	 600 	 0	300 	 700 	 0	300 	 800 	 0	300 	 900 	 0	300 	 1000 	 0	400 	 0 	 0	400 	 100 	 0	400 	 200 	 0	400 	 300 	 0	400 	 400 	 0	400 	 500 	 0	400 	 600 	 0	400 	 700 	 0	400 	 800 	 0	400 	 900 	 0	400 	 1000 	 0	500 	 0 	 0	500 	 100 	 0	500 	 200 	 0	500 	 300 	 0	500 	 400 	 0	500 	 500 	 0	500 	 600 	 0	500 	 700 	 0	500 	 800 	 0	500 	 900 	 0	500 	 1000 	 0	600 	 0 	 0	600 	 100 	 0	600 	 200 	 0	600 	 300 	 0	600 	 400 	 0	600 	 500 	 0	600 	 600 	 0	600 	 700 	 0	600 	 800 	 0	600 	 900 	 0	600 	 1000 	 0	700 	 0 	 0	700 	 100 	 0	700 	 200 	 0	700 	 300 	 0	700 	 400 	 0	700 	 500 	 0	700 	 600 	 0	700 	 700 	 0	700 	 800 	 0	700 	 900 	 0	700 	 1000 	 0	800 	 0 	 0	800 	 100 	 0	800 	 200 	 0	800 	 300 	 0	800 	 400 	 0	800 	 500 	 0	800 	 600 	 0	800 	 700 	 0	800 	 800 	 0	800 	 900 	 0	800 	 1000 	 0	900 	 0 	 0	900 	 100 	 0	900 	 200 	 0	900 	 300 	 0	900 	 400 	 0	900 	 500 	 0	900 	 600 	 0	900 	 700 	 0	900 	 800 	 0	900 	 900 	 0	900 	 1000 	 0	1000 	 0 	 0	1000 	 100 	 0	1000 	 200 	 0	1000 	 300 	 0	1000 	 400 	 0	1000 	 500 	 0	1000 	 600 	 0	1000 	 700 	 0	1000 	 800 	 0	1000 	 900 	 0	1000 	 1000 	 0	0 	 0 	 100	0 	 100 	 100	0 	 200 	 100	0 	 300 	 100	0 	 400 	 100	0 	 500 	 100	0 	 600 	 100	0 	 700 	 100	0 	 800 	 100	0 	 900 	 100	0 	 1000 	 100	100 	 0 	 100	100 	 100 	 100	100 	 200 	 100	100 	 300 	 100	100 	 400 	 100	100 	 500 	 100	100 	 600 	 100	100 	 700 	 100	100 	 800 	 100	100 	 900 	 100	100 	 1000 	 100	200 	 0 	 100	200 	 100 	 100	200 	 200 	 100	200 	 300 	 100	200 	 400 	 100	200 	 500 	 100	200 	 600 	 100	200 	 700 	 100	200 	 800 	 100	200 	 900 	 100	200 	 1000 	 100	300 	 0 	 100	300 	 100 	 100	300 	 200 	 100	300 	 300 	 100	300 	 400 	 100	300 	 500 	 100	300 	 600 	 100	300 	 700 	 100	300 	 800 	 100	300 	 900 	 100	300 	 1000 	 100	400 	 0 	 100	400 	 100 	 100	400 	 200 	 100	400 	 300 	 100	400 	 400 	 100	400 	 500 	 100	400 	 600 	 100	400 	 700 	 100	400 	 800 	 100	400 	 900 	 100	400 	 1000 	 100	500 	 0 	 100	500 	 100 	 100	500 	 200 	 100	500 	 300 	 100	500 	 400 	 100	500 	 500 	 100	500 	 600 	 100	500 	 700 	 100	500 	 800 	 100	500 	 900 	 100	500 	 1000 	 100	600 	 0 	 100	600 	 100 	 100	600 	 200 	 100	600 	 300 	 100	600 	 400 	 100	600 	 500 	 100	600 	 600 	 100	600 	 700 	 100	600 	 800 	 100	600 	 900 	 100	600 	 1000 	 100	700 	 0 	 100	700 	 100 	 100	700 	 200 	 100	700 	 300 	 100	700 	 400 	 100	700 	 500 	 100	700 	 600 	 100	700 	 700 	 100	700 	 800 	 100	700 	 900 	 100	700 	 1000 	 100	800 	 0 	 100	800 	 100 	 100	800 	 200 	 100	800 	 300 	 100	800 	 400 	 100	800 	 500 	 100	800 	 600 	 100	800 	 700 	 100	800 	 800 	 100	800 	 900 	 100	800 	 1000 	 100	900 	 0 	 100	900 	 100 	 100	900 	 200 	 100	900 	 300 	 100	900 	 400 	 100	900 	 500 	 100	900 	 600 	 100	900 	 700 	 100	900 	 800 	 100	900 	 900 	 100	900 	 1000 	 100	1000 	 0 	 100	1000 	 100 	 100	1000 	 200 	 100	1000 	 300 	 100	1000 	 400 	 100	1000 	 500 	 100	1000 	 600 	 100	1000 	 700 	 100	1000 	 800 	 100	1000 	 900 	 100	1000 	 1000 	 100	0 	 0 	 200	0 	 100 	 200	0 	 200 	 200	0 	 300 	 200	0 	 400 	 200	0 	 500 	 200	0 	 600 	 200	0 	 700 	 200	0 	 800 	 200	0 	 900 	 200	0 	 1000 	 200	100 	 0 	 200	100 	 100 	 200	100 	 200 	 200	100 	 300 	 200	100 	 400 	 200	100 	 500 	 200	100 	 600 	 200	100 	 700 	 200	100 	 800 	 200	100 	 900 	 200	100 	 1000 	 200	200 	 0 	 200	200 	 100 	 200	200 	 200 	 200	200 	 300 	 200	200 	 400 	 200	200 	 500 	 200	200 	 600 	 200	200 	 700 	 200	200 	 800 	 200	200 	 900 	 200	200 	 1000 	 200	300 	 0 	 200	300 	 100 	 200	300 	 200 	 200	300 	 300 	 200	300 	 400 	 200	300 	 500 	 200	300 	 600 	 200	300 	 700 	 200	300 	 800 	 200	300 	 900 	 200	300 	 1000 	 200	400 	 0 	 200	400 	 100 	 200	400 	 200 	 200	400 	 300 	 200	400 	 400 	 200	400 	 500 	 200	400 	 600 	 200	400 	 700 	 200	400 	 800 	 200	400 	 900 	 200	400 	 1000 	 200	500 	 0 	 200	500 	 100 	 200	500 	 200 	 200	500 	 300 	 200	500 	 400 	 200	500 	 500 	 200	500 	 600 	 200	500 	 700 	 200	500 	 800 	 200	500 	 900 	 200	500 	 1000 	 200	600 	 0 	 200	600 	 100 	 200	600 	 200 	 200	600 	 300 	 200	600 	 400 	 200	600 	 500 	 200	600 	 600 	 200	600 	 700 	 200	600 	 800 	 200	600 	 900 	 200	600 	 1000 	 200	700 	 0 	 200	700 	 100 	 200	700 	 200 	 200	700 	 300 	 200	700 	 400 	 200	700 	 500 	 200	700 	 600 	 200	700 	 700 	 200	700 	 800 	 200	700 	 900 	 200	700 	 1000 	 200	800 	 0 	 200	800 	 100 	 200	800 	 200 	 200	800 	 300 	 200	800 	 400 	 200	800 	 500 	 200	800 	 600 	 200	800 	 700 	 200	800 	 800 	 200	800 	 900 	 200	800 	 1000 	 200	900 	 0 	 200	900 	 100 	 200	900 	 200 	 200	900 	 300 	 200	900 	 400 	 200	900 	 500 	 200	900 	 600 	 200	900 	 700 	 200	900 	 800 	 200	900 	 900 	 200	900 	 1000 	 200	1000 	 0 	 200	1000 	 100 	 200	1000 	 200 	 200	1000 	 300 	 200	1000 	 400 	 200	1000 	 500 	 200	1000 	 600 	 200	1000 	 700 	 200	1000 	 800 	 200	1000 	 900 	 200	1000 	 1000 	 200	0 	 0 	 300	0 	 100 	 300	0 	 200 	 300	0 	 300 	 300	0 	 400 	 300	0 	 500 	 300	0 	 600 	 300	0 	 700 	 300	0 	 800 	 300	0 	 900 	 300	0 	 1000 	 300	100 	 0 	 300	100 	 100 	 300	100 	 200 	 300	100 	 300 	 300	100 	 400 	 300	100 	 500 	 300	100 	 600 	 300	100 	 700 	 300	100 	 800 	 300	100 	 900 	 300	100 	 1000 	 300	200 	 0 	 300	200 	 100 	 300	200 	 200 	 300	200 	 300 	 300	200 	 400 	 300	200 	 500 	 300	200 	 600 	 300	200 	 700 	 300	200 	 800 	 300	200 	 900 	 300	200 	 1000 	 300	300 	 0 	 300	300 	 100 	 300	300 	 200 	 300	300 	 300 	 300	300 	 400 	 300	300 	 500 	 300	300 	 600 	 300	300 	 700 	 300	300 	 800 	 300	300 	 900 	 300	300 	 1000 	 300	400 	 0 	 300	400 	 100 	 300	400 	 200 	 300	400 	 300 	 300	400 	 400 	 300	400 	 500 	 300	400 	 600 	 300	400 	 700 	 300	400 	 800 	 300	400 	 900 	 300	400 	 1000 	 300	500 	 0 	 300	500 	 100 	 300	500 	 200 	 300	500 	 300 	 300	500 	 400 	 300	500 	 500 	 300	500 	 600 	 300	500 	 700 	 300	500 	 800 	 300	500 	 900 	 300	500 	 1000 	 300	600 	 0 	 300	600 	 100 	 300	600 	 200 	 300	600 	 300 	 300	600 	 400 	 300	600 	 500 	 300	600 	 600 	 300	600 	 700 	 300	600 	 800 	 300	600 	 900 	 300	600 	 1000 	 300	700 	 0 	 300	700 	 100 	 300	700 	 200 	 300	700 	 300 	 300	700 	 400 	 300	700 	 500 	 300	700 	 600 	 300	700 	 700 	 300	700 	 800 	 300	700 	 900 	 300	700 	 1000 	 300	800 	 0 	 300	800 	 100 	 300	800 	 200 	 300	800 	 300 	 300	800 	 400 	 300	800 	 500 	 300	800 	 600 	 300	800 	 700 	 300	800 	 800 	 300	800 	 900 	 300	800 	 1000 	 300	900 	 0 	 300	900 	 100 	 300	900 	 200 	 300	900 	 300 	 300	900 	 400 	 300	900 	 500 	 300	900 	 600 	 300	900 	 700 	 300	900 	 800 	 300	900 	 900 	 300	900 	 1000 	 300	1000 	 0 	 300	1000 	 100 	 300	1000 	 200 	 300	1000 	 300 	 300	1000 	 400 	 300	1000 	 500 	 300	1000 	 600 	 300	1000 	 700 	 300	1000 	 800 	 300	1000 	 900 	 300	1000 	 1000 	 300	0 	 0 	 400	0 	 100 	 400	0 	 200 	 400	0 	 300 	 400	0 	 400 	 400	0 	 500 	 400	0 	 600 	 400	0 	 700 	 400	0 	 800 	 400	0 	 900 	 400	0 	 1000 	 400	100 	 0 	 400	100 	 100 	 400	100 	 200 	 400	100 	 300 	 400	100 	 400 	 400	100 	 500 	 400	100 	 600 	 400	100 	 700 	 400	100 	 800 	 400	100 	 900 	 400	100 	 1000 	 400	200 	 0 	 400	200 	 100 	 400	200 	 200 	 400	200 	 300 	 400	200 	 400 	 400	200 	 500 	 400	200 	 600 	 400	200 	 700 	 400	200 	 800 	 400	200 	 900 	 400	200 	 1000 	 400	300 	 0 	 400	300 	 100 	 400	300 	 200 	 400	300 	 300 	 400	300 	 400 	 400	300 	 500 	 400	300 	 600 	 400	300 	 700 	 400	300 	 800 	 400	300 	 900 	 400	300 	 1000 	 400	400 	 0 	 400	400 	 100 	 400	400 	 200 	 400	400 	 300 	 400	400 	 400 	 400	400 	 500 	 400	400 	 600 	 400	400 	 700 	 400	400 	 800 	 400	400 	 900 	 400	400 	 1000 	 400	500 	 0 	 400	500 	 100 	 400	500 	 200 	 400	500 	 300 	 400	500 	 400 	 400	500 	 500 	 400	500 	 600 	 400	500 	 700 	 400	500 	 800 	 400	500 	 900 	 400	500 	 1000 	 400	600 	 0 	 400	600 	 100 	 400	600 	 200 	 400	600 	 300 	 400	600 	 400 	 400	600 	 500 	 400	600 	 600 	 400	600 	 700 	 400	600 	 800 	 400	600 	 900 	 400	600 	 1000 	 400	700 	 0 	 400	700 	 100 	 400	700 	 200 	 400	700 	 300 	 400	700 	 400 	 400	700 	 500 	 400	700 	 600 	 400	700 	 700 	 400	700 	 800 	 400	700 	 900 	 400	700 	 1000 	 400	800 	 0 	 400	800 	 100 	 400	800 	 200 	 400	800 	 300 	 400	800 	 400 	 400	800 	 500 	 400	800 	 600 	 400	800 	 700 	 400	800 	 800 	 400	800 	 900 	 400	800 	 1000 	 400	900 	 0 	 400	900 	 100 	 400	900 	 200 	 400	900 	 300 	 400	900 	 400 	 400	900 	 500 	 400	900 	 600 	 400	900 	 700 	 400	900 	 800 	 400	900 	 900 	 400	900 	 1000 	 400	1000 	 0 	 400	1000 	 100 	 400	1000 	 200 	 400	1000 	 300 	 400	1000 	 400 	 400	1000 	 500 	 400	1000 	 600 	 400	1000 	 700 	 400	1000 	 800 	 400	1000 	 900 	 400	1000 	 1000 	 400	0 	 0 	 500	0 	 100 	 500	0 	 200 	 500	0 	 300 	 500	0 	 400 	 500	0 	 500 	 500	0 	 600 	 500	0 	 700 	 500	0 	 800 	 500	0 	 900 	 500	0 	 1000 	 500	100 	 0 	 500	100 	 100 	 500	100 	 200 	 500	100 	 300 	 500	100 	 400 	 500	100 	 500 	 500	100 	 600 	 500	100 	 700 	 500	100 	 800 	 500	100 	 900 	 500	100 	 1000 	 500	200 	 0 	 500	200 	 100 	 500	200 	 200 	 500	200 	 300 	 500	200 	 400 	 500	200 	 500 	 50
[...]
                <PointData>
                   <DataArray Name="pore.diameter" NumberOfComponents="1" type="Float64">53.3121 	 42.1088 	 73.3558 	 39.8891 	 46.1717 	 42.7127 	 43.2971 	 59.6816 	 64.2423 	 56.4532 	 59.0011 	 44.628 	 42.3864 	 27.3801 	 37.9705 	 67.1323 	 47.9701 	 47.1844 	 63.6282 	 37.2577 	 44.4727 	 61.9181 	 46.943 	 48.0853 	 45.842 	 53.4784 	 55.1251 	 58.8015 	 38.8079 	 43.0178 	 46.5653 	 45.9754 	 38.3434 	 57.0318 	 54.3397 	 63.4946 	 50.1506 	 63.063 	 41.1238 	 55.1093 	 49.3185 	 60.9061 	 37.9472 	 48.5064 	 32.7365 	 58.8397 	 53.75 	 54.8868 	 32.6771 	 57.4946 	 56.6142 	 55.0921 	 73.2606 	 46.6471 	 44.886 	 62.0276 	 36.7969 	 51.5164 	 35.0228 	 45.0298 	 51.2107 	 46.526 	 65.5159 	 64.2098 	 35.6879 	 42.9078 	 60.4613 	 49.8377 	 65.4226 	 33.4393 	 47.5838 	 40.0617 	 43.7281 	 53.8844 	 45.4917 	 41.4326 	 44.9957 	 45.129 	 46.9567 	 42.0149 	 55.0961 	 45.4717 	 44.9664 	 55.9465 	 52.9574 	 46.9316 	 43.8677 	 30.0028 	 53.9847 	 44.4166 	 43.8782 	 64.3266 	 64.721 	 50.8233 	 45.4223 	 39.1426 	 70.6669 	 41.3599 	 50.5275 	 37.9477 	 53.8209 	 48.3457 	 59.6877 	 49.6092 	 47.4751 	 61.8493 	 50.5951 	 41.114 	 35.4699 	 54.0916 	 35.9931 	 46.5515 	 54.9176 	 46.2721 	 66.766 	 34.7698 	 52.1943 	 39.192 	 36.7269 	 43.2643 	 67.0499 	 72.4587 	 46.9971 	 50.3336 	 46.138 	 38.538 	 60.7578 	 48.6851 	 57.4618 	 45.6976 	 43.1611 	 44.4448 	 46.1283 	 71.4156 	 63.3756 	 46.5886 	 46.4663 	 30.506 	 57.2406 	 43.8836 	 55.4588 	 56.6369 	 48.2847 	 43.5054 	 100.107 	 39.6958 	 63.5717 	 56.1908 	 36.6585 	 42.9768 	 49.7546 	 47.7721 	 42.2409 	 34.0148 	 39.8959 	 38.2481 	 50.2733 	 52.5782 	 47.3756 	 59.9352 	 53.3674 	 52.624 	 50.8559 	 40.7571 	 66.4445 	 42.2997 	 59.6668 	 37.0837 	 45.1187 	 50.929 	 57.3667 	 78.6078 	 40.2783 	 45.4644 	 52.306 	 44.0613 	 59.6588 	 48.0874 	 58.3115 	 43.4198 	 44.3587 	 42.1349 	 47.428 	 60.084 	 59.8906 	 44.5466 	 37.9669 	 47.1828 	 69.3279 	 73.4961 	 57.6164 	 58.1315 	 48.0135 	 51.502 	 48.5712 	 69.954 	 43.6287 	 48.7244 	 55.5517 	 35.2871 	 46.1698 	 40.0706 	 51.5116 	 33.1345 	 55.5805 	 40.6743 	 44.4429 	 47.5107 	 56.2476 	 54.2506 	 43.1097 	 53.5092 	 48.7146 	 55.3675 	 51.817 	 61.9545 	 31.6234 	 58.2673 	 40.7073 	 69.6045 	 43.8803 	 57.2607 	 50.4078 	 41.3934 	 45.4406 	 45.226 	 41.3639 	 34.6572 	 34.1609 	 49.8836 	 40.3447 	 42.2746 	 43.7277 	 44.4264 	 52.8458 	 54.4897 	 49.2502 	 49.8931 	 48.9631 	 37.8277 	 51.222 	 57.3474 	 43.8182 	 56.3625 	 59.9906 	 48.8373 	 34.0608 	 55.7005 	 46.066 	 70.7351 	 53.2512 	 44.2392 	 60.9544 	 55.9218 	 50.9212 	 43.6089 	 53.1381 	 43.8476 	 45.1975 	 42.8496 	 53.9456 	 63.5393 	 34.4286 	 48.1959 	 44.51 	 40.5983 	 36.8396 	 40.62 	 43.266 	 55.1561 	 50.0802 	 34.7767 	 33.8137 	 32.9479 	 48.5888 	 43.6785 	 43.3677 	 61.7596 	 37.6897 	 65.0919 	 55.5371 	 48.5636 	 73.9645 	 50.4052 	 75.7587 	 43.4277 	 44.8347 	 49.645 	 57.5606 	 40.3545 	 65.3592 	 50.0031 	 59.1878 	 68.6333 	 62.8401 	 54.15 	 42.5218 	 58.0973 	 42.5412 	 56.2559 	 50.5272 	 38.5866 	 49.5359 	 59.2412 	 70.8391 	 51.1499 	 47.7171 	 39.9759 	 38.3348 	 41.3988 	 55.8831 	 43.7676 	 49.3018 	 55.6054 	 52.9542 	 47.7747 	 45.0792 	 46.8324 	 58.4472 	 50.7429 	 30.7927 	 42.4214 	 38.2477 	 69.4231 	 34.6235 	 57.9383 	 51.6126 	 39.8762 	 58.8011 	 58.7993 	 42.19 	 50.5659 	 40.1881 	 57.1505 	 48.5649 	 44.2783 	 43.9297 	 63.0953 	 67.8632 	 42.454 	 85.0731 	 70.9952 	 47.2102 	 54.642 	 39.9072 	 52.7006 	 43.3365 	 62.9361 	 56.4036 	 66.6875 	 65.4379 	 49.4012 	 43.1712 	 48.6468 	 42.8024 	 62.6835 	 77.6198 	 46.573 	 62.9269 	 55.7105 	 37.5938 	 53.6733 	 43.8812 	 52.4995 	 46.515 	 64.2951 	 58.2996 	 46.5898 	 41.7797 	 37.1321 	 41.7626 	 35.8865 	 37.1235 	 44.5574 	 56.6525 	 35.7157 	 60.5385 	 61.748 	 67.3947 	 57.0335 	 58.5026 	 52.5941 	 63.0529 	 56.4329 	 45.6359 	 66.0044 	 59.853 	 40.3957 	 92.0309 	 44.061 	 50.5053 	 51.0739 	 46.9949 	 49.3158 	 50.4627 	 43.0426 	 52.3595 	 38.1425 	 69.0686 	 55.9416 	 46.5095 	 62.7627 	 34.0658 	 38.4385 	 72.3066 	 51.1744 	 46.9204 	 42.4521 	 51.813 	 44.5537 	 35.0377 	 66.5899 	 44.7082 	 58.3889 	 42.5728 	 42.7817 	 47.6556 	 58.9827 	 48.0447 	 44.9516 	 59.0995 	 47.5802 	 45.4101 	 40.8045 	 50.1424 	 55.8197 	 69.3268 	 56.1948 	 51.5322 	 51.2099 	 47.2146 	 44.3371 	 67.8527 	 49.2013 	 45.6298 	 28.3628 	 45.2469 	 31.6825 	 64.5884 	 51.331 	 38.9643 	 42.6147 	 48.8718 	 36.0295 	 56.2457 	 50.6331 	 59.526 	 36.5494 	 45.719 	 40.1642 	 55.0214 	 42.9192 	 66.8148 	 40.4009 	 32.9747 	 66.1681 	 40.3544 	 56.5074 	 53.3739 	 54.4716 	 53.1367 	 31.9204 	 54.8827 	 54.5443 	 49.714 	 49.7366 	 54.7105 	 59.2329 	 46.7476 	 45.7554 	 50.1561 	 48.4272 	 59.1125 	 38.412 	 61.7198 	 58.9864 	 59.4309 	 69.8111 	 55.0299 	 70.2738 	 36.9073 	 35.4375 	 50.8269 	 47.7753 	 40.1083 	 42.2648 	 72.6349 	 36.2285 	 59.7759 	 46.6521 	 61.5021 	 53.5391 	 61.2804 	 43.266 	 50.4832 	 42.6715 	 41.5734 	 39.9686 	 43.7614 	 49.18 	 38.2285 	 41.8669 	 54.8131 	 54.1142 	 73.3803 	 55.3767 	 38.9798 	 46.7077 	 45.7398 	 60.8477 	 52.7761 	 48.388 	 53.4868 	 54.1993 	 57.0136 	 34.2752 	 47.793 	 55.7642 	 40.6233 	 29.0581 	 51.7122 	 39.3451 	 65.2731 	 47.7258 	 50.2502 	 39.0977 	 39.4597 	 53.768 	 40.4211 	 38.4143 	 54.1176 	 50.8831 	 57.05 	 50.8285 	 64.6769 	 46.8951 	 40.7728 	 49.3904 	 62.8805 	 60.8456 	 40.2649 	 38.0008 	 46.8357 	 43.6829 	 41.3863 	 39.1167 	 39.2736 	 51.0286 	 50.0541 	 39.8972 	 37.0674 	 43.7828 	 50.1267 	 49.9077 	 59.8134 	 78.207 	 51.91 	 47.2527 	 46.2592 	 35.2157 	 55.9184 	 51.2098 	 51.4122 	 47.3518 	 44.731 	 53.4867 	 56.9986 	 47.4473 	 38.1186 	 57.4866 	 49.1578 	 51.0167 	 41.6867 	 48.0121 	 48.0147 	 39.7435 	 63.1666 	 49.8819 	 50.6018 	 41.7692 	 55.5197 	 44.7822 	 64.2004 	 50.3664 	 73.1699 	 37.3981 	 44.0906 	 44.7782 	 47.0499 	 37.4928 	 42.1535 	 36.3915 	 57.3598 	 43.6758 	 51.9852 	 40.8445 	 45.8372 	 41.1659 	 50.3036 	 56.6859 	 41.5745 	 47.3184 	 51.7605 	 46.7837 	 50.7167 	 43.0883 	 48.9301 	 31.1536 	 53.3169 	 46.0121 	 33.7899 	 67.5034 	 50.8977 	 71.2882 	 41.9196 	 55.731 	 59.2883 	 55.3932 	 38.6812 	 56.6978 	 46.9969 	 49.7312 	 63.4647 	 54.5434 	 60.3824 	 60.2387 	 55.282 	 55.8473 	 55.8947 	 37.0974 	 34.3961 	 63.3395 	 68.8901 	 63.1752 	 53.9853 	 65.5781 	 44.3099 	 45.3456 	 70.9137 	 40.9034 	 62.8594 	 59.8755 	 36.3724 	 52.0778 	 46.9714 	 57.4877 	 58.0713 	 59.2302 	 61.7964 	 56.5745 	 49.584 	 50.1097 	 46.1273 	 32.0076 	 36.6828 	 48.8543 	 34.5028 	 36.6561 	 37.7432 	 61.777 	 51.7318 	 67.7813 	 36.7272 	 54.1517 	 51.7891 	 67.0823 	 41.9897 	 75.5585 	 51.1144 	 62.8133 	 71.2448 	 57.9464 	 69.678 	 49.1962 	 59.5369 	 41.9394 	 41.7488 	 61.4606 	 51.5625 	 44.0422 	 63.8539 	 54.8408 	 44.6815 	 48.2178 	 34.9433 	 33.7758 	 33.351 	 38.8173 	 36.7952 	 45.9615 	 46.3732 	 42.0682 	 44.5583 	 42.3579 	 27.8673 	 44.361 	 28.3862 	 55.8931 	 46.3278 	 49.5268 	 39.701 	 50.0678 	 46.0492 	 50.3035 	 45.5178 	 43.5152 	 34.0663 	 59.3265 	 54.9206 	 50.6642 	 45.222 	 40.2317 	 49.552 	 48.6737 	 47.4941 	 39.9689 	 37.9232 	 53.1394 	 49.5473 	 49.6707 	 60.9422 	 66.7238 	 72.9869 	 56.4389 	 47.005 	 42.6838 	 57.683 	 42.283 	 61.7823 	 54.2507 	 42.073 	 50.3366 	 45.2163 	 70.8941 	 32.91 	 38.1751 	 49.0701 	 54.1746 	 46.1188 	 54.6229 	 54.0756 	 72.3402 	 54.6954 	 44.1638 	 49.8954 	 56.2955 	 55.6072 	 52.9683 	 58.3022 	 41.6426 	 31.344 	 50.615 	 44.4173 	 44.5963 	 79.8201 	 40.9407 	 57.2747 	 54.4399 	 49.8821 	 34.4901 	 56.1821 	 50.7561 	 49.337 	 49.3131 	 34.0929 	 63.9157 	 45.1256 	 36.6643 	 51.8084 	 35.9003 	 40.9609 	 40.949 	 51.5987 	 45.1874 	 36.2046 	 43.4744 	 42.5111 	 46.1002 	 45.2756 	 69.4967 	 45.8541 	 65.1424 	 54.9558 	 48.3491 	 54.405 	 44.1037 	 47.8393 	 57.5532 	 38.4568 	 53.4574 	 40.9967 	 52.5282 	 44.1047 	 32.7285 	 44.3968 	 63.3255 	 58.529 	 46.3627 	 56.2675 	 75.2097 	 35.3654 	 81.8872 	 52.4066 	 37.4781 	 44.3843 	 40.3351 	 67.3864 	 54.1006 	 48.1357 	 49.6442 	 46.5497 	 32.8757 	 53.3125 	 72.8748 	 57.5512 	 60.8686 	 45.8087 	 65.1043 	 68.6069 	 39.7187 	 72.62 	 53.3107 	 45.7239 	 60.9175 	 39.5646 	 42.6437 	 51.5323 	 48.9231 	 61.6034 	 51.3011 	 45.4899 	 36.4567 	 40.3687 	 55.0553 	 53.2228 	 61.4888 	 40.8032 	 52.7485 	 25.587 	 48.7276 	 46.9792 	 54.6341 	 59.4164 	 37.7285 	 73.1643 	 47.8134 	 64.4026 	 59.2418 	 36.3985 	 36.8857 	 60.7466 	 55.3665 	 55.6982 	 55.6004 	 45.142 	 59.9085 	 49.4492 	 66.8945 	 68.3727 	 38.9306 	 58.7676 	 43.4945 	 46.3913 	 43.1184 	 37.9051 	 48.8465 	 33.4666 	 44.5826 	 54.5069 	 59.2672 	 41.4814 	 45.4492 	 43.5958 	 45.4924 	 69.8215 	 65.1357 	 51.9522 	 62.5246 	 59.1418 	 59.6034 	 60.2864 	 38.8753 	 48.6065 	 43.5806 	 72.1509 	 41.0933 	 53.6643 	 72.1045 	 42.438 	 44.8021 	 34.4767 	 60.3904 	 41.0952 	 47.0403 	 40.5957 	 54.9207 	 40.326 	 38.0588 	 41.1221 	 57.1417 	 55.0169 	 55.1335 	 57.2097 	 35.1656 	 65.2886 	 42.6083 	 45.4929 	 39.3497 	 60.5436 	 71.4075 	 38.9511 	 38.8906 	 41.2905 	 51.6829 	 60.5945 	 50.6243 	 47.5848 	 58.7903 	 43.1334 	 67.4704 	 43.13 	 62.8598 	 58.2274 	 60.3481 	 40.2281 	 61.6184 	 53.8959 	 59.2954 	 45.9113 	 62.0719 	 51.9713 	 39.4474 	 54.3727 	 38.8346 	 39.7103 	 59.4167 	 41.1988 	 43.2181 	 46.1915 	 42.0461 	 42.5302 	 63.7592 	 43.6623 	 59.6934 	 58.6787 	 72.8471 	 45.443 	 55.2816 	 46.7058 	 48.248 	 53.2655 	 80.1537 	 49.2927 	 47.969 	 42.6203 	 40.431 	 58.0686 	 58.3969 	 37.8075 	 39.2633 	 43.5899 	 53.6092 	 69.4896 	 42.5295 	 51.1693 	 56.0118 	 35.0077 	 49.2835 	 47.6875 	 46.4886 	 39.868 	 77.7735 	 52.7113 	 59.4761 	 37.0392 	 49.4718 	 43.5455 	 47.1649 	 63.8454 	 60.955 	 46.5743 	 44.152 	 36.2631 	 60.5162 	 34.4411 	 48.0029 	 59.6025 	 61.5959 	 72.2589 	 65.2584 	 51.7384 	 65.3765 	 41.2638 	 47.9039 	 38.9445 	 39.6387 	 46.7711 	 40.4967 	 36.2181 	 70.5913 	 46.4305 	 38.4093 	 30.523 	 56.9237 	 52.2906 	 63.667 	 64.2747 	 49.8898 	 63.1245 	 56.8119 	 48.2526 	 55.073 	 45.1579 	 52.4835 	 44.13 	 53.9521 	 42.4959 	 41.5147 	 61.412 	 54.2917 	 30.6994 	 54.3829 	 37.4735 	 45.1301 	 57.8415 	 57.3115 	 39.5546 	 56.6554 	 47.1492 	 45.5199 	 33.8873 	 33.7113 	 48.5873 	 65.6886 	 52.477 	 61.4389 	 52.1697 	 59.3227 	 53.9085 	 51.2872 	 50.5519 	 54.6951 	 47.2124 	 43.2367 	 61.5547 	 62.6385 	 52.7397 	 54.7781 	 42.8664 	 50.7436 	 49.9978 	 74.0053 	 43.2405 	 41.425 	 46.2162 	 58.8881 	 44.4797 	 69.6652 	 45.9828 	 47.5738 	 43.6286 	 42.5144 	 54.3996 	 47.1537 	 50.8949 	 40.5754 	 37.9904 	 38.4438 	 40.4513 	 34.5725 	 38.4073 	 47.7933 	 53.7532 	 76.3149 	 38.8832 	 63.857 	 53.779 	 58.6213 	 63.5835 	 72.5964 	 51.0113 	 43.498 	 53.7706 	 56.2267 	 53.9887 	 42.1709 	 52.3146 	 56.017 	 49.1351 	 40.3187 	 63.872 	 41.3687 	 58.9014 	 58.9693 	 49.6547 	 48.1378 	 47.1104 	 53.0496 	 61.7817 	 44.838 	 57.2526 	 32.3237 	 35.6434 	 35.9734 	 52.9502 	 47.3145 	 46.4022 	 56.7835 	 34.2851 	 43.5541 	 29.9407 	 51.5766 	 59.147 	 51.3597 	 45.7876 	 58.8432 	 44.2639 	 43.1493 	 52.1843 	 44.3698 	 44.2542 	 71.3795 	 42.6495 	 50.4696 	 51.4211 	 43.9906 	 43.3865 	 54.4196 	 62.0826 	 46.8468 	 49.0924 	 50.0143 	 73.01 	 65.6941 	 66.9056 	 43.2707 	 45.9345 	 55.7412 	 58.2536 	 48.5953 	 44.193 	 58.949 	 60.601 	 34.9994 	 41.106 	 35.9048 	 39.4621 	 55.8539 	 56.7278 	 52.7302 	 51.7983 	 61.2578 	 43.3429 	 54.0573 	 44.1699 	 55.1146 	 34.4417 	 53.3761 	 40.6855 	 47.6749 	 52.3604 	 42.0011 	 40.3198 	 53.6821 	 61.9772 	 49.02 	 69.6527 	 62.2076 	 49.9171 	 59.6403 	 59.8404 	 47.8866 	 60.8876 	 51.5941 	 47.2063 	 53.6989 	 68.742 	 52.7889 	 45.2221 	 54.2421 	 45.5864 	 56.5819 	 58.6592 	 60.3987 	 36.6292 	 56.4847 	 50.0206 	 53.7195 	 49.146 	 40.147 	 42.9919 	 35.8966 	 42.0166 	 46.8511 	 34.26 	 55.7418 	 50.1751 	 50.9648 	 49.1164 	 54.7254 	 49.6532 	 41.9912 	 32.7873 	 58.8032 	 42.0014 	 43.2103 	 49.6004 	 51.8937 	 41.8193 	 41.9883 	 42.5609 	 48.2361 	 58.4816 	 45.2646 	 44.5346 	 42.8633 	 40.9512 	 56.6847 	 64.8769 	 45.716 	 38.5825 	 45.9407 	 57.7651 	 56.7258 	 46.2105 	 47.8596 	 39.726 	 45.6741 	 46.6779 	 58.3505 	 54.6894 	 57.5654 	 46.3649 	 39.7364 	 53.4665 	 38.2972 	 51.7295 	 54.6416 	 88.3084 	 45.5811 	 47.4948 	 56.2494 	 60.522 	 57.9303 	 37.3454 	 53.4831 	 44.7201 	 52.9872 	 41.3609 	 75.4512 	 54.9142 	 49.7034 	 69.8479 	 46.3629 	 45.4349 	 42.2451 	 43.1766 	 70.5976 	 52.467 	 57.1809 	 72.1725 	 46.6353 	 55.6703 	 40.6135 	 40.9969 	 48.7909 	 59.6035 	 53.9669 	 43.4615 	 40.3279 	 45.9666 	 36.8225 	 44.1941 	 26.6939 	 50.7572 	 60.3019 	 41.17 	 53.6153 	 66.0639 	 54.2314 	 55.5193 	 37.2911 	 42.3015 	 57.6759 	 58.5741 	 87.2167 	 34.002 	 53.7585 	 40.9049 	 43.696 	 44.722 	 46.921 	 41.4422 	 50.5175 	 59.9646 	 47.5278 	 42.7678 	 58.9861 	 52.6961 	 45.3865 	 35.4947 	 53.7861 	 68.4534 	 50.3396 	 47.1558 	 38.1142 	 44.6561 	 53.6489 	 34.2852 	 61.7344 	 53.7355 	 44.1149 	 34.3703 	 56.4079 	 57.471 	 45.3841 	 53.5433 	 57.3385 	 58.8132 	 69.845 	 48.1728 	 43.4476 	 49.7505 	 60.4238 	 58.6983 	 43.7314 	 46.9723 	 53.503 	 42.1365 	 71.209 	 50.3257 	 </DataArray>