<VTKFile byte_order="LittleEndian" type="PolyData" version="0.1">
        <PolyData>
            <Piece NumberOfLines="605" NumberOfPoints="1330">
                <Points>
                <DataArray Name="coords" NumberOfComponents="3" type="Float64">2.4e-21	5e-05	 0.000155e-05	5e-05	 5e-052.4e-21	0.00065	 5e-052.4e-21	5e-05	 0.000952.4e-21	5e-05	 0.000155e-05	0.00035	 5e-052.4e-21	0.00015	 0.000655e-05	5e-05	 0.000155e-05	5e-05	 5e-052.4e-21	0.00025	 0.000355e-05	5e-05	 0.000255e-05	0.00085	 5e-052.4e-21	0.00035	 5e-055e-05	5e-05	 0.000355e-05	0.00055	 5e-052.4e-21	0.00035	 0.000855e-05	5e-05	 0.000455e-05	0.00025	 5e-052.4e-21	0.00045	 0.000555e-05	5e-05	 0.000455e-05	0.00105	 5e-052.4e-21	0.00055	 0.000255e-05	5e-05	 0.000555e-05	0.00075	 5e-052.4e-21	0.00055	 0.001055e-05	5e-05	 0.000655e-05	0.00045	 5e-052.4e-21	0.00065	 0.000755e-05	5e-05	 0.000655e-05	0.00015	 5e-052.4e-21	0.00075	 0.000455e-05	5e-05	 0.000755e-05	0.00095	 5e-052.4e-21	0.00085	 0.000155e-05	5e-05	 0.000855e-05	0.00065	 5e-052.4e-21	0.00085	 0.000952.4e-21	5e-05	 0.000955e-05	0.00035	 5e-052.4e-21	0.00095	 0.000655e-05	5e-05	 0.000955e-05	5e-05	 5e-052.4e-21	0.00105	 0.000355e-05	5e-05	 0.001055e-05	0.00085	 5e-055e-05	5e-05	 5e-055e-05	0.00015	 5e-052.4e-21	0.00055	 0.000155e-05	5e-05	 0.000855e-05	0.00015	 0.000155e-05	0.00025	 0.000155e-05	0.00015	 0.000555e-05	0.00015	 0.000155e-05	0.00105	 0.000155e-05	0.00025	 0.000255e-05	0.00015	 0.000255e-05	0.00075	 0.000155e-05	0.00025	 0.001055e-05	0.00015	 0.000355e-05	0.00045	 0.000155e-05	0.00035	 0.000755e-05	0.00015	 0.000355e-05	0.00015	 0.000155e-05	0.00045	 0.000455e-05	0.00015	 0.000455e-05	0.00095	 0.000155e-05	0.00055	 0.000155e-05	0.00015	 0.000555e-05	0.00065	 0.000155e-05	0.00055	 0.000952.4e-21	0.00015	 0.000655e-05	0.00035	 0.000155e-05	0.00065	 0.000655e-05	0.00015	 0.000655e-05	5e-05	 0.000155e-05	0.00075	 0.000355e-05	0.00015	 0.000755e-05	0.00085	 0.000155e-05	0.00085	 5e-055e-05	0.00015	 0.000855e-05	0.00055	 0.000155e-05	0.00085	 0.000855e-05	0.00015	 0.000955e-05	0.00025	 0.000155e-05	0.00095	 0.000555e-05	0.00015	 0.000955e-05	0.00105	 0.000155e-05	0.00105	 0.000255e-05	0.00015	 0.001055e-05	0.00075	 0.000155e-05	0.00105	 0.001055e-05	0.00025	 5e-052.4e-21	0.00045	 0.000255e-05	5e-05	 0.000755e-05	0.00025	 5e-055e-05	0.00015	 0.000255e-05	0.00015	 0.000455e-05	0.00025	 0.000155e-05	0.00095	 0.000255e-05	0.00025	 0.000155e-05	0.00025	 0.000255e-05	0.00065	 0.000255e-05	0.00025	 0.000952.4e-21	0.00025	 0.000355e-05	0.00035	 0.000255e-05	0.00035	 0.000655e-05	0.00025	 0.000355e-05	5e-05	 0.000255e-05	0.00045	 0.000355e-05	0.00025	 0.000455e-05	0.00085	 0.000255e-05	0.00055	 5e-055e-05	0.00025	 0.000555e-05	0.00055	 0.000255e-05	0.00055	 0.000855e-05	0.00025	 0.000655e-05	0.00025	 0.000255e-05	0.00065	 0.000555e-05	0.00025	 0.000655e-05	0.00105	 0.000255e-05	0.00075	 0.000255e-05	0.00025	 0.000755e-05	0.00075	 0.000255e-05	0.00075	 0.001055e-05	0.00025	 0.000855e-05	0.00045	 0.000255e-05	0.00085	 0.000755e-05	0.00025	 0.000855e-05	0.00015	 0.000255e-05	0.00095	 0.000455e-05	0.00025	 0.000955e-05	0.00095	 0.000255e-05	0.00105	 0.000155e-05	0.00025	 0.001055e-05	0.00065	 0.000255e-05	0.00105	 0.000952.4e-21	0.00035	 5e-052.4e-21	0.00035	 0.000355e-05	5e-05	 0.000655e-05	0.00035	 5e-055e-05	5e-05	 0.000355e-05	0.00015	 0.000355e-05	0.00035	 0.000155e-05	0.00085	 0.000355e-05	0.00025	 5e-055e-05	0.00035	 0.000255e-05	0.00055	 0.000355e-05	0.00025	 0.000855e-05	0.00035	 0.000355e-05	0.00025	 0.000355e-05	0.00035	 0.000555e-05	0.00035	 0.000355e-05	0.00105	 0.000355e-05	0.00045	 0.000255e-05	0.00035	 0.000455e-05	0.00075	 0.000355e-05	0.00045	 0.001055e-05	0.00035	 0.000555e-05	0.00045	 0.000355e-05	0.00055	 0.000755e-05	0.00035	 0.000555e-05	0.00015	 0.000355e-05	0.00065	 0.000455e-05	0.00035	 0.000655e-05	0.00095	 0.000355e-05	0.00075	 0.000155e-05	0.00035	 0.000755e-05	0.00065	 0.000355e-05	0.00075	 0.000952.4e-21	0.00035	 0.000855e-05	0.00035	 0.000355e-05	0.00085	 0.000655e-05	0.00035	 0.000855e-05	5e-05	 0.000355e-05	0.00095	 0.000355e-05	0.00035	 0.000955e-05	0.00085	 0.000355e-05	0.00105	 5e-055e-05	0.00035	 0.001055e-05	0.00055	 0.000355e-05	0.00105	 0.000855e-05	0.00045	 5e-052.4e-21	0.00025	 0.000455e-05	5e-05	 0.000555e-05	0.00045	 5e-052.4e-21	0.00105	 0.000455e-05	0.00015	 0.000255e-05	0.00045	 0.000155e-05	0.00075	 0.000455e-05	0.00015	 0.001055e-05	0.00045	 0.000255e-05	0.00045	 0.000455e-05	0.00025	 0.000755e-05	0.00045	 0.000255e-05	0.00015	 0.000455e-05	0.00035	 0.000455e-05	0.00045	 0.000355e-05	0.00095	 0.000455e-05	0.00045	 0.000155e-05	0.00045	 0.000455e-05	0.00065	 0.000455e-05	0.00045	 0.000952.4e-21	0.00045	 0.000555e-05	0.00035	 0.000455e-05	0.00055	 0.000655e-05	0.00045	 0.000555e-05	5e-05	 0.000455e-05	0.00065	 0.000355e-05	0.00045	 0.000655e-05	0.00085	 0.000455e-05	0.00075	 5e-055e-05	0.00045	 0.000755e-05	0.00055	 0.000455e-05	0.00075	 0.000855e-05	0.00045	 0.000855e-05	0.00025	 0.000455e-05	0.00085	 0.000555e-05	0.00045	 0.000855e-05	0.00105	 0.000455e-05	0.00095	 0.000255e-05	0.00045	 0.000955e-05	0.00075	 0.000455e-05	0.00095	 0.001055e-05	0.00045	 0.001055e-05	0.00045	 0.000455e-05	0.00105	 0.000755e-05	0.00045	 0.001052.4e-21	0.00015	 0.000555e-05	5e-05	 0.000455e-05	0.00055	 5e-052.4e-21	0.00095	 0.000555e-05	0.00015	 0.000155e-05	0.00055	 0.000155e-05	0.00065	 0.000555e-05	0.00015	 0.000952.4e-21	0.00055	 0.000255e-05	0.00035	 0.000555e-05	0.00025	 0.000655e-05	0.00055	 0.000255e-05	5e-05	 0.000555e-05	0.00035	 0.000355e-05	0.00055	 0.000355e-05	0.00085	 0.000555e-05	0.00045	 5e-055e-05	0.00055	 0.000455e-05	0.00055	 0.000555e-05	0.00045	 0.000855e-05	0.00055	 0.000555e-05	0.00025	 0.000555e-05	0.00055	 0.000555e-05	0.00055	 0.000555e-05	0.00105	 0.000555e-05	0.00065	 0.000255e-05	0.00055	 0.000655e-05	0.00075	 0.000555e-05	0.00065	 0.001055e-05	0.00055	 0.000755e-05	0.00045	 0.000555e-05	0.00075	 0.000755e-05	0.00055	 0.000755e-05	0.00015	 0.000555e-05	0.00085	 0.000455e-05	0.00055	 0.000855e-05	0.00095	 0.000555e-05	0.00095	 0.000155e-05	0.00055	 0.000955e-05	0.00065	 0.000555e-05	0.00095	 0.000952.4e-21	0.00055	 0.001055e-05	0.00035	 0.000555e-05	0.00105	 0.000655e-05	0.00055	 0.001052.4e-21	5e-05	 0.000655e-05	5e-05	 0.000355e-05	0.00065	 5e-052.4e-21	0.00085	 0.000655e-05	0.00015	 5e-055e-05	0.00065	 0.000155e-05	0.00055	 0.000655e-05	0.00015	 0.000855e-05	0.00065	 0.000255e-05	0.00025	 0.000655e-05	0.00025	 0.000555e-05	0.00065	 0.000255e-05	0.00105	 0.000655e-05	0.00035	 0.000255e-05	0.00065	 0.000355e-05	0.00075	 0.000655e-05	0.00035	 0.001055e-05	0.00065	 0.000455e-05	0.00045	 0.000655e-05	0.00045	 0.000755e-05	0.00065	 0.000455e-05	0.00015	 0.000655e-05	0.00055	 0.000455e-05	0.00065	 0.000555e-05	0.00095	 0.000655e-05	0.00065	 0.000155e-05	0.00065	 0.000655e-05	0.00065	 0.000655e-05	0.00065	 0.000952.4e-21	0.00065	 0.000755e-05	0.00035	 0.000655e-05	0.00075	 0.000655e-05	0.00065	 0.000755e-05	5e-05	 0.000655e-05	0.00085	 0.000355e-05	0.00065	 0.000855e-05	0.00085	 0.000655e-05	0.00095	 5e-055e-05	0.00065	 0.000955e-05	0.00055	 0.000655e-05	0.00095	 0.000855e-05	0.00065	 0.001055e-05	0.00025	 0.000655e-05	0.00105	 0.000555e-05	0.00065	 0.001055e-05	0.00105	 0.000755e-05	5e-05	 0.000255e-05	0.00075	 5e-052.4e-21	0.00075	 0.000755e-05	5e-05	 0.001055e-05	0.00075	 0.000155e-05	0.00045	 0.000755e-05	0.00015	 0.000755e-05	0.00075	 0.000155e-05	0.00015	 0.000755e-05	0.00025	 0.000455e-05	0.00075	 0.000255e-05	0.00095	 0.000755e-05	0.00035	 0.000155e-05	0.00075	 0.000355e-05	0.00065	 0.000755e-05	0.00035	 0.000952.4e-21	0.00075	 0.000455e-05	0.00035	 0.000755e-05	0.00045	 0.000655e-05	0.00075	 0.000455e-05	5e-05	 0.000755e-05	0.00055	 0.000355e-05	0.00075	 0.000555e-05	0.00085	 0.000755e-05	0.00065	 5e-055e-05	0.00075	 0.000655e-05	0.00055	 0.000755e-05	0.00065	 0.000855e-05	0.00075	 0.000755e-05	0.00025	 0.000755e-05	0.00075	 0.000555e-05	0.00075	 0.000755e-05	0.00105	 0.000755e-05	0.00085	 0.000255e-05	0.00075	 0.000855e-05	0.00075	 0.000755e-05	0.00085	 0.001055e-05	0.00075	 0.000955e-05	0.00045	 0.000755e-05	0.00095	 0.000755e-05	0.00075	 0.000955e-05	0.00015	 0.000755e-05	0.00105	 0.000455e-05	0.00075	 0.001055e-05	0.00095	 0.000755e-05	5e-05	 0.000155e-05	0.00085	 5e-052.4e-21	0.00065	 0.000855e-05	5e-05	 0.000952.4e-21	0.00085	 0.000155e-05	0.00035	 0.000855e-05	0.00015	 0.000655e-05	0.00085	 0.000155e-05	5e-05	 0.000855e-05	0.00025	 0.000355e-05	0.00085	 0.000255e-05	0.00085	 0.000855e-05	0.00035	 5e-055e-05	0.00085	 0.000355e-05	0.00055	 0.000855e-05	0.00035	 0.000855e-05	0.00085	 0.000455e-05	0.00025	 0.000855e-05	0.00045	 0.000555e-05	0.00085	 0.000455e-05	0.00105	 0.000855e-05	0.00055	 0.000255e-05	0.00085	 0.000555e-05	0.00075	 0.000855e-05	0.00055	 0.001055e-05	0.00085	 0.000655e-05	0.00045	 0.000855e-05	0.00065	 0.000755e-05	0.00085	 0.000655e-05	0.00015	 0.000855e-05	0.00075	 0.000455e-05	0.00085	 0.000755e-05	0.00095	 0.000855e-05	0.00085	 0.000155e-05	0.00085	 0.000855e-05	0.00065	 0.000855e-05	0.00085	 0.000952.4e-21	0.00085	 0.000955e-05	0.00035	 0.000855e-05	0.00095	 0.000655e-05	0.00085	 0.000955e-05	5e-05	 0.000855e-05	0.00105	 0.000355e-05	0.00085	 0.001055e-05	0.00085	 0.000855e-05	5e-05	 5e-055e-05	0.00095	 5e-052.4e-21	0.00055	 0.000955e-05	5e-05	 0.000855e-05	0.00095	 0.000155e-05	0.00025	 0.000955e-05	0.00015	 0.000555e-05	0.00095	 0.000155e-05	0.00105	 0.000955e-05	0.00025	 0.000255e-05	0.00095	 0.000255e-05	0.00075	 0.000955e-05	0.00025	 0.001055e-05	0.00095	 0.000355e-05	0.00045	 0.000955e-05	0.00035	 0.000755e-05	0.00095	 0.000355e-05	0.00015	 0.000955e-05	0.00045	 0.000455e-05	0.00095	 0.000455e-05	0.00095	 0.000955e-05	0.00055	 0.000155e-05	0.00095	 0.000555e-05	0.00065	 0.000955e-05	0.00055	 0.000952.4e-21	0.00095	 0.000655e-05	0.00035	 0.000955e-05	0.00065	 0.000655e-05	0.00095	 0.000655e-05	5e-05	 0.000955e-05	0.00075	 0.000355e-05	0.00095	 0.000755e-05	0.00085	 0.000955e-05	0.00085	 5e-055e-05	0.00095	 0.000855e-05	0.00055	 0.000955e-05	0.00085	 0.000855e-05	0.00095	 0.000955e-05	0.00025	 0.000955e-
[...]
                <PointData>
                   <DataArray Name="pore.diameter" NumberOfComponents="1" type="Float64">2.4e-21	2.4e-21	5e-05	2.4e-21	2.4e-21	5e-05	5e-05	2.4e-21	5e-05	5e-05	2.4e-21	5e-05	5e-05	2.4e-21	5e-05	5e-05	2.4e-21	5e-05	5e-05	2.4e-21	2.4e-21	5e-05	2.4e-21	5e-05	5e-05	2.4e-21	5e-05	5e-05	2.4e-21	5e-05	5e-05	2.4e-21	5e-05	5e-05	2.4e-21	5e-05	5e-05	2.4e-21	5e-05	5e-05	2.4e-21	5e-05	5e-05	2.4e-21	5e-05	2.4e-21	5e-05	5e-05	2.4e-21	5e-05	5e-05	5e-05	5e-05	2.4e-21	5e-05	5e-05	5e-05	5e-05	5e-05	5e-05	5e-05	5e-05	5e-05	5e-05	5e-05	5e-05	5e-05	5e-05	5e-05	5e-05	5e-05	5e-05	5e-05	5e-05	5e-05	5e-05	5e-05	5e-05	5e-05	5e-05	5e-05	5e-05	5e-05	5e-05	5e-05	5e-05	2.4e-21	5e-05	5e-05	5e-05	2.4e-21	5e-05	5e-05	2.4e-21	5e-05	5e-05	5e-05	5e-05	5e-05	5e-05	5e-05	5e-05	5e-05	5e-05	5e-05	5e-05	5e-05	5e-05	5e-05	5e-05	5e-05	5e-05	5e-05	5e-05	5e-05	5e-05	5e-05	5e-05	5e-05	2.4e-21	5e-05	5e-05	5e-05	5e-05	5e-05	5e-05	5e-05	5e-05	5e-05	5e-05	5e-05	5e-05	5e-05	5e-05	5e-05	5e-05	5e-05	5e-05	2.4e-21	5e-05	5e-05	5e-05	5e-05	5e-05	5e-05	5e-05	5e-05	5e-05	5e-05	5e-05	5e-05	5e-05	2.4e-21	5e-05	5e-05	5e-05	5e-05	5e-05	5e-05	5e-05	5e-05	5e-05	5e-05	5e-05	5e-05	5e-05	5e-05	5e-05	5e-05	5e-05	5e-05	5e-05	5e-05	5e-05	5e-05	5e-05	5e-05	5e-05	5e-05	5e-05	5e-05	5e-05	5e-05	2.4e-21	5e-05	2.4e-21	5e-05	5e-05	5e-05	5e-05	5e-05	5e-05	5e-05	5e-05	5e-05	5e-05	5e-05	5e-05	5e-05	5e-05	5e-05	5e-05	5e-05	5e-05	5e-05	5e-05	5e-05	5e-05	5e-05	5e-05	5e-05	5e-05	5e-05	5e-05	5e-05	5e-05	5e-05	5e-05	2.4e-21	5e-05	5e-05	5e-05	5e-05	5e-05	5e-05	5e-05	5e-05	5e-05	2.4e-21	5e-05	5e-05	5e-05	5e-05	5e-05	5e-05	5e-05	5e-05	5e-05	5e-05	5e-05	5e-05	5e-05	5e-05	5e-05	5e-05	5e-05	5e-05	5e-05	5e-05	5e-05	5e-05	2.4e-21	5e-05	5e-05	5e-05	5e-05	5e-05	5e-05	5e-05	5e-05	5e-05	5e-05	5e-05	5e-05	5e-05	5e-05	5e-05	5e-05	5e-05	5e-05	5e-05	5e-05	5e-05	2.4e-21	5e-05	5e-05	5e-05	5e-05	5e-05	5e-05	5e-05	5e-05	5e-05	5e-05	2.4e-21	5e-05	5e-05	5e-05	5e-05	5e-05	5e-05	5e-05	5e-05	5e-05	5e-05	5e-05	5e-05	5e-05	5e-05	5e-05	5e-05	5e-05	5e-05	5e-05	5e-05	5e-05	5e-05	5e-05	5e-05	5e-05	5e-05	5e-05	5e-05	5e-05	5e-05	5e-05	5e-05	2.4e-21	2.4e-21	5e-05	5e-05	5e-05	5e-05	5e-05	5e-05	5e-05	5e-05	5e-05	5e-05	5e-05	5e-05	5e-05	5e-05	5e-05	5e-05	5e-05	5e-05	5e-05	5e-05	5e-05	5e-05	5e-05	5e-05	5e-05	5e-05	5e-05	5e-05	5e-05	5e-05	5e-05	2.4e-21	5e-05	5e-05	5e-05	5e-05	5e-05	5e-05	5e-05	5e-05	5e-05	5e-05	5e-05	5e-05	2.4e-21	5e-05	5e-05	2.4e-21	5e-05	5e-05	5e-05	5e-05	5e-05	5e-05	5e-05	5e-05	5e-05	5e-05	5e-05	5e-05	5e-05	5e-05	5e-05	5e-05	2.4e-21	5e-05	5e-05	5e-05	5e-05	5e-05	5e-05	5e-05	5e-05	5e-05	5e-05	5e-05	5e-05	5e-05	5e-05	5e-05	5e-05	5e-05	5e-05	5e-05	5e-05	5e-05	5e-05	5e-05	5e-05	2.4e-21	5e-05	5e-05	2.4e-21	5e-05	5e-05	5e-05	5e-05	2.4e-21	5e-05	5e-05	5e-05	5e-05	5e-05	5e-05	5e-05	5e-05	5e-05	5e-05	5e-05	5e-05	5e-05	5e-05	5e-05	5e-05	5e-05	5e-05	5e-05	5e-05	5e-05	5e-05	5e-05	5e-05	5e-05	5e-05	5e-05	5e-05	5e-05	5e-05	5e-05	5e-05	2.4e-21	5e-05	5e-05	5e-05	2.4e-21	5e-05	5e-05	2.4e-21	5e-05	5e-05	5e-05	5e-05	5e-05	5e-05	5e-05	5e-05	5e-05	5e-05	5e-05	5e-05	5e-05	5e-05	5e-05	5e-05	5e-05	5e-05	5e-05	5e-05	5e-05	5e-05	5e-05	5e-05	5e-05	2.4e-21	5e-05	5e-05	5e-05	5e-05	5e-05	5e-05	5e-05	5e-05	5e-05	5e-05	5e-05	5e-05	5e-05	5e-05	5e-05	5e-05	0	0	0	0	0	0	0	0	0	0	0	0	0	0	0	0	0	0	0	0	0	0	0	0	0	0	0	0	0	0	0	0	0	0	0	0	0	0	0	0	0	0	0	0	0	0	0	0	0	0	0	0	0	0	0	0	0	0	0	0	0	0	0	0	0	0	0	0	0	0	0	0	0	0	0	0	0	0	0	0	0	0	0	0	0	0	0	0	0	0	0	0	0	0	0	0	0	0	0	0	0	0	0	0	0	0	0	0	0	0	0	0	0	0	0	0	0	0	0	0	0	0	0	0	0	0	0	0	0	0	0	0	0	0	0	0	0	0	0	0	0	0	0	0	0	0	0	0	0	0	0	0	0	0	0	0	0	0	0	0	0	0	0	0	0	0	0	0	0	0	0	0	0	0	0	0	0	0	0	0	0	0	0	0	0	0	0	0	0	0	0	0	0	0	0	0	0	0	0	0	0	0	0	0	0	0	0	0	0	0	0	0	0	0	0	0	0	0	0	0	0	0	0	0	0	0	0	0	0	0	0	0	0	0	0	0	0	0	0	0	0	0	0	0	0	0	0	0	0	0	0	0	0	0	0	0	0	0	0	0	0	0	0	0	0	0	0	0	0	0	0	0	0	0	0	0	0	0	0	0	0	0	0	0	0	0	0	0	0	0	0	0	0	0	0	0	0	0	0	0	0	0	0	0	0	0	0	0	0	0	0	0	0	0	0	0	0	0	0	0	0	0	0	0	0	0	0	0	0	0	0	0	0	0	0	0	0	0	0	0	0	0	0	0	0	0	0	0	0	0	0	0	0	0	0	0	0	0	0	0	0	0	0	0	0	0	0	0	0	0	0	0	0	0	0	0	0	0	0	0	0	0	0	0	0	0	0	0	0	0	0	0	0	0	0	0	0	0	0	0	0	0	0	0	0	0	0	0	0	0	0	0	0	0	0	0	0	0	0	0	0	0	0	0	0	0	0	0	0	0	0	0	0	0	0	0	0	0	0	0	0	0	0	0	0	0	0	0	0	0	0	0	0	0	0	0	0	0	0	0	0	0	0	0	0	0	0	0	0	0	0	0	0	0	0	0	0	0	0	0	0	0	0	0	0	0	0	0	0	0	0	0	0	0	0	0	0	0	0	0	0	0	0	0	0	0	0	0	0	0	0	0	0	0	0	0	0	0	0	0	0	0	0	0	0	0	0	0	0	0	0	0	0	0	0	0	0	0	0	0	0	0	0	0	0	0	0	0	0	0	0	0	0	0	0	0	0	0	0	0	0	0	0	0	0	0	0	0	0	0	0	0	0	0	0	0	0	0	0	0	0	0	0	0	0	0	0	0	0	0	0	0	0	0	0	0	0	0	0	0	0	0	0	0	0	0	0	0	0	0	0	0	0	0	0	0	0	0	0	0	0	0	0	0	0	0	0	0	0	0	0	0	0	0	0	0	0	0	0	0	0	0	0	0	0	0	0	0	0	0	0	0	0	0	0	0	0	0	0	0	0	0	0	0	0	0	0	0	0	0	0	0	0	0	0	0	0	0	0	0	0	0	0	0	0	0	0	0	0	0	0	0	0	0	0	0	0	0	0	0	0	0	0	0	0	0	0	0	0	0	0	0	0	0	0	0	0	0	0	0	0	0	0	0	0	0	0	0	0	0	0	0	0	0	0	0	0	0	0	0	0	0	0	0	0	0	0	0	0	0	0	0	0	0	0	0	0	0	0	0	0	0	0	0	0	0	0	0	0	0	0	0	0	0	0	0	0	0	0	0	0	0	0	0	0	0	0	0	0	0	0	0	0	0	0	0	0	0	0	0	0	0	0	0	0	0	0	0	0	0	0	0	0	0	0	0	0	0	0	0	0	0	0	0	0	0	0	0	0	0	0	</DataArray>
                   <DataArray Name="pore.pressure" NumberOfComponents="1" type="Float64">-2.67755e-09	-2.67755e-09	-2.67755e-09	-2.67755e-09	-2.73576e-09	-2.67755e-09	-2.73576e-09	-2.67755e-09	-2.67755e-09	-2.67755e-09	-2.73576e-09	-2.67755e-09	-2.67755e-09	-2.73576e-09	-2.67755e-09	-2.67755e-09	-2.67755e-09	-2.67755e-09	-2.67755e-09	-2.67755e-09	-2.67755e-09	-2.67755e-09	-2.67755e-09	-2.67755e-09	-2.67755e-09	-2.67755e-09	-2.73576e-09	-2.67755e-09	-2.61934e-09	-2.67755e-09	-2.67755e-09	-2.67755e-09	-2.67755e-09	-2.67755e-09	-2.67755e-09	-2.67755e-09	-2.73576e-09	-2.67755e-09	-2.67755e-09	-2.67755e-09	-2.61934e-09	-2.67755e-09	-2.67755e-09	-2.67755e-09	-2.67755e-09	-2.67755e-09	-2.61934e-09	-2.67755e-09	-2.67755e-09	-2.67755e-09	-2.67755e-09	-2.67755e-09	-2.73576e-09	-2.67755e-09	-2.67755e-09	-2.67755e-09	-2.61934e-09	-2.67755e-09	-2.73576e-09	-2.61934e-09	-2.67755e-09	-2.67755e-09	-2.67755e-09	-2.67755e-09	-2.73576e-09	-2.67755e-09	-2.73576e-09	-2.67755e-09	-2.67755e-09	-2.67755e-09	-2.67755e-09	-2.67755e-09	-2.61934e-09	-2.67755e-09	-2.67755e-09	-2.67755e-09	-2.61934e-09	-2.67755e-09	-2.67755e-09	-2.61934e-09	-2.67755e-09	-2.67755e-09	-2.67755e-09	-2.67755e-09	-2.67755e-09	-2.67755e-09	-2.67755e-09	-2.67755e-09	-2.67755e-09	-2.67755e-09	-2.67755e-09	-2.67755e-09	-2.67755e-09	-2.67755e-09	-2.73576e-09	-2.67755e-09	-2.67755e-09	-2.67755e-09	-2.61934e-09	-2.73576e-09	-2.67755e-09	-2.67755e-09	-2.67755e-09	-2.67755e-09	-2.67755e-09	-2.67755e-09	-2.61934e-09	-2.67755e-09	-2.61934e-09	-2.67755e-09	-2.67755e-09	-2.67755e-09	-2.67755e-09	-2.67755e-09	-2.67755e-09	-2.67755e-09	-2.67755e-09	-2.67755e-09	-2.73576e-09	-2.67755e-09	-2.67755e-09	-2.73576e-09	-2.67755e-09	-2.67755e-09	-2.73576e-09	-2.61934e-09	-2.67755e-09	-2.61934e-09	-2.67755e-09	-2.67755e-09	-2.67755e-09	-2.73576e-09	-2.61934e-09	-2.61934e-09	-2.67755e-09	-2.67755e-09	-2.73576e-09	-2.61934e-09	-2.67755e-09	-2.73576e-09	-2.67755e-09	-2.67755e-09	-2.67755e-09	-2.61934e-09	-2.67755e-09	-2.67755e-09	-2.67755e-09	-2.67755e-09	-2.67755e-09	-2.73576e-09	-2.67755e-09	-2.67755e-09	-2.67755e-09	-2.67755e-09	-2.73576e-09	-2.67755e-09	-2.67755e-09	-2.73576e-09	-2.67755e-09	-2.67755e-09	-2.61934e-09	-2.67755e-09	-2.67755e-09	-2.67755e-09	-2.67755e-09	-2.67755e-09	-2.67755e-09	-2.73576e-09	-2.67755e-09	-2.61934e-09	-2.67755e-09	-2.67755e-09	-2.67755e-09	-2.67755e-09	-2.67755e-09	-2.61934e-09	-2.67755e-09	-2.67755e-09	-2.67755e-09	-2.61934e-09	-2.67755e-09	-2.73576e-09	-2.67755e-09	-2.67755e-09	-2.67755e-09	-2.61934e-09	-2.67755e-09	-2.67755e-09	-2.67755e-09	-2.67755e-09	-2.73576e-09	-2.61934e-09	-2.67755e-09	-2.73576e-09	-2.67755e-09	-2.67755e-09	-2.61934e-09	-2.67755e-09	-2.61934e-09	-2.67755e-09	-2.67755e-09	-2.67755e-09	-2.73576e-09	-2.73576e-09	-2.67755e-09	-2.61934e-09	-2.67755e-09	-2.67755e-09	-2.67755e-09	-2.67755e-09	-2.67755e-09	-2.67755e-09	-2.67755e-09	-2.67755e-09	-2.67755e-09	-2.61934e-09	-2.67755e-09	-2.67755e-09	-2.67755e-09	-2.67755e-09	-2.67755e-09	-2.67755e-09	-2.67755e-09	-2.67755e-09	-2.67755e-09	-2.67755e-09	-2.61934e-09	-2.67755e-09	-2.67755e-09	-2.61934e-09	-2.67755e-09	-2.73576e-09	-2.61934e-09	-2.67755e-09	-2.67755e-09	-2.67755e-09	-2.67755e-09	-2.73576e-09	-2.67755e-09	-2.61934e-09	-2.67755e-09	-2.67755e-09	-2.67755e-09	-2.67755e-09	-2.67755e-09	-2.67755e-09	-2.61934e-09	-2.67755e-09	-2.67755e-09	-2.67755e-09	-2.73576e-09	-2.67755e-09	-2.67755e-09	-2.67755e-09	-2.67755e-09	-2.67755e-09	-2.61934e-09	-2.61934e-09	-2.73576e-09	-2.67755e-09	-2.67755e-09	-2.67755e-09	-2.67755e-09	-2.67755e-09	-2.73576e-09	-2.67755e-09	-2.67755e-09	-2.67755e-09	-2.73576e-09	-2.67755e-09	-2.67755e-09	-2.67755e-09	-2.67755e-09	-2.67755e-09	-2.73576e-09	-2.67755e-09	-2.73576e-09	-2.67755e-09	-2.67755e-09	-2.67755e-09	-2.67755e-09	-2.67755e-09	-2.67755e-09	-2.61934e-09	-2.67755e-09	-2.67755e-09	-2.67755e-09	-2.67755e-09	-2.67755e-09	-2.67755e-09	-2.67755e-09	-2.67755e-09	-2.67755e-09	-2.67755e-09	-2.61934e-09	-2.67755e-09	-2.67755e-09	-2.67755e-09	-2.67755e-09	-2.67755e-09	-2.67755e-09	-2.67755e-09	-2.67755e-09	-2.73576e-09	-2.67755e-09	-2.67755e-09	-2.67755e-09	-2.67755e-09	-2.67755e-09	-2.67755e-09	-2.73576e-09	-2.67755e-09	-2.67755e-09	-2.67755e-09	-2.67755e-09	-2.67755e-09	-2.67755e-09	-2.67755e-09	-2.73576e-09	-2.67755e-09	-2.67755e-09	-2.67755e-09	-2.67755e-09	-2.61934e-09	-2.67755e-09	-2.67755e-09	-2.67755e-09	-2.67755e-09	-2.67755e-09	-2.67755e-09	-2.67755e-09	-2.67755e-09	-2.67755e-09	-2.67755e-09	-2.67755e-09	-2.67755e-09	-2.73576e-09	-2.67755e-09	-2.67755e-09	-2.67755e-09	-2.67755e-09	-2.67755e-09	-2.67755e-09	-2.67755e-09	-2.67755e-09	-2.67755e-09	-2.67755e-09	-2.67755e-09	-2.67755e-09	-2.73576e-09	-2.67755e-09	-2.67755e-09	-2.73576e-09	-2.67755e-09	-2.67755e-09	-2.67755e-09	-2.67755e-09	-2.67755e-09	-2.67755e-09	-2.67755e-09	-2.67755e-09	-2.67755e-09	-2.67755e-09	-2.73576e-09	-2.73576e-09	-2.67755e-09	-2.67755e-09	-2.67755e-09	-2.67755e-09	-2.67755e-09	-2.67755e-09	-2.73576e-09	-2.67755e-09	-2.67755e-09	-2.67755e-09	-2.67755e-09	-2.61934e-09	-2.67755e-09	-2.67755e-09	-2.67755e-09	-2.67755e-09	-2.73576e-09	-2.61934e-09	-2.67755e-09	-2.67755e-09	-2.67755e-09	-2.67755e-09	-2.67755e-09	-2.67755e-09	-2.67755e-09	-2.67755e-09	-2.67755e-09	-2.67755e-09	-2.67755e-09	-2.61934e-09	-2.67755e-09	-2.73576e-09	-2.67755e-09	-2.67755e-09	-2.67755e-09	-2.73576e-09	-2.67755e-09	-2.73576e-09	-2.67755e-09	-2.67755e-09	-2.67755e-09	-2.67755e-09	-2.67755e-09	-2.67755e-09	-2.67755e-09	-2.67755e-09	-2.67755e-09	-2.73576e-09	-2.67755e-09	-2.67755e-09	-2.67755e-09	-2.67755e-09	-2.67755e-09	-2.67755e-09	-2.61934e-09	-2.67755e-09	-2.67755e-09	-2.73576e-09	-2.67755e-09	-2.73576e-09	-2.61934e-09	-2.67755e-09	-2.67755e-09	-2.67755e-09	-2.61934e-09	-2.61934e-09	-2.61934e-09	-2.67755e-09	-2.67755e-09	-2.67755e-09	-2.67755e-09	-2.73576e-09	-2.61934e-09	-2.67755e-09	-2.67755e-09	-2.67755e-09	-2.61934e-09	-2.67755e-09	-2.61934e-09	-2.67755e-09	-2.67755e-09	-2.67755e-09	-2.61934e-09	-2.67755e-09	-2.67755e-09	-2.67755e-09	-2.67755e-09	-2.67755e-09	-2.61934e-09	-2.67755e-09	-2.67755e-09	-2.67755e-09	-2.67755e-09	-2.67755e-09	-2.67755e-09	-2.73576e-09	-2.67755e-09	-2.67755e-09	-2.67755e-09	-2.67755e-09	-2.67755e-09	-2.67755e-09	-2.67755e-09	-2.73576e-09	-2.67755e-09	-2.67755e-09	-2.67755e-09	-2.61934e-09	-2.67755e-09	-2.67755e-09	-2.73576e-09	-2.67755e-09	-2.67755e-09	-2.67755e-09	-2.67755e-09	-2.67755e-09	-2.73576e-09	-2.67755e-09	-2.67755e-09	-2.67755e-09	-2.67755e-09	-2.67755e-09	-2.67755e-09	-2.67755e-09	-2.67755e-09	-2.73576e-09	-2.67755e-09	-2.67755e-09	-2.67755e-09	-2.67755e-09	-2.67755e-09	-2.67755e-09	-2.67755e-09	-2.67755e-09	-2.67755e-09	-2.67755e-09	-2.67755e-09	-2.61934e-09	-2.67755e-09	-2.67755e-09	-2.67755e-09	-2.67755e-09	-2.67755e-09	-2.67755e-09	-2.67755e-09	-2.67755e-09	-2.67755e-09	-2.67755e-09	-2.67755e-09	-2.67755e-09	-2.67755e-09	-2.67755e-09	-2.67755e-09	-2.67755e-09	-2.67755e-09	-2.73576e-09	-2.73576e-09	-2.67755e-09	-2.67755e-09	-2.61934e-09	-2.67755e-09	-2.67755e-09	-2.67755e-09	-2.67755e-09	-2.67755e-09	-2.61934e-09	-2.67755e-09	-2.67755e-09	-2.67755e-09	-2.73576e-09	-2.67755e-09	-2.67755e-09	-2.67755e-09	-2.67755e-09	-2.67755e-09	-2.67755e-09	-2.73576e-09	-2.73576e-09	-2.67755e-09	-2.73576e-09	-2.67755e-09	-2.67755e-09	-2.73576e-09	-2.67755e-09	-2.67755e-09	-2.73576e-09	-2.67755e-09	-2.67755e-09	-2.67755e-09	-2.61934e-09	-2.67755e-09	-2.67755e-09	-2.67755e-09	-2.67755e-09	-2.67755e-09	-2.67755e-09	-2.67755e-09	-2.67755e-09	-2.67755e-09	-2.67755e-09	-2.67755e-09	-2.73576e-09	-2.73576e-09	-2.67755e-09	-2.67755e-09	-2.67755e-09	-2.67755e-09	-2.67755e-09	-2.67755e-09	-2.73576e-09	-2.67755e-09	-2.67755e-09	-2.67755e-09	-2.67755e-09	-2.67755e-09	-2.67755e-09	-2.67755e-09	-2.67755e-09	-2.67755e-09	-2.61934e-09	-2.67755e-09	-2.61934e-09	-2.67755e-09	-2.67755e-09	-2.67755e-09	-2.67755e-09	-2.67755e-09	-2.61934e-09	-2.67755e-09	-2.67755e-09	-2.67755e-09	-2.73576e-09	-2.67755e-09	-2.67755e-09	-2.67755e-09	-2.67755e-09	-2.67755e-09	-2.61934e-09	-2.67755e-09	-2.67755e-09	-2.67755e-09	-2.67755e-09	-2.67755e-09	-2.67755e-09	-2.67755e-09	-2.67755e-09	-2.67755e-09	-2.67755e-09	-2.73576e-09	-2.67755e-09	-2.67755e-09	-2.61934e-09	-2.67755e-09	-2.67755e-09	-2.67755e-09	-2.73576e-09	-2.73576e-09	-2.61934e-09	-2.67755e-09	-2.67755e-09	-2.67755e-09	-2.67755e-09	-2.61934e-09	-2.73576e-09	-2.67755e-09	-2.67755e-09	-2.73576e-09	-2.67755e-09	-2.67755e-09	-2.67755e-09	-2.67755e-09	-2.67755e-09	-2.61934e-09	-2.67755e-09	-2.73576e-09	-2.67755e-09	-2.67755e-09	-2.67755e-09	-2.67755e-09	-2.67755e-09	-2.61934e-09	-2.67755e-09	-2.67755e-09	-2.67755e-09	-2.73576e-09	-2.67755e-09	-2.73576e-09	-2.67755e-09	-2.67755e-09	-2.67755e-09	-2.61934e-09	-2.67755e-09	-2.67755e-09	-2.61934e-09	-2.67755e-09	-2.73576e-09	-2.73576e-09	-2.67755e-09	-2.73576e-09	-2.67755e-09	-2.67755e-09	-2.67755e-09	-2.67755e-09	-2.67755e-09	-2.73576e-09	-2.67755e-09	-2.67755e-09	-2.67755e-09	-2.67755e-09	-2.67755e-09	-2.73576e-09	-2.73576e-09	-2.67755e-09	-2.67755e-09	-2.67755e-09	-2.67755e-09	-2.67755e-09	-2.61934e-09	-2.67755e-09	-2.67755e-09	-2.73576e-09	-2.61934e-09	-2.73576e-09	-2.61934e-09	-2.67755e-09	-2.67755e-09	-2.67755e-09	-2.67755e-09	-2.61934e-09	-2.67755e-09	-2.67755e-09	-2.67755e-09	-2.73576e-09	-2.67755e-09	-2.73576e-09	-2.73576e-09	-2.67755e-09	-2.67755e-09	-2.61934e-09	-2.67755e-09	-2.67755e-09	-2.73576e-09	-2.67755e-09	-2.67755e-09	-2.67755e-09	-2.67755e-09	-2.67755e-09	-2.67755e-09	-2.67755e-09	-2.67755e-09	-2.67755e-09	-2.67755e-09	-2.67755e-09	-2.67755e-09	-2.67755e-09	-2.67755e-09	-2.67755e-09	-2.67755e-09	-2.67755e-09	-2.67755e-09	-2.67755e-09	-2.67755e-09	-2.67755e-09	-2.67755e-09	-2.67755e-09	-2.67755e-09	-2.67755e-09	-2.61934e-09	-2.67755e-09	-2.67755e-09	-2.67755e-09	-2.67755e-09	-2.67755e-09	-2.67755e-09	-2.67755e-09	-2.67755e-09	-2.67755e-09	-2.67755e-09	-2.67755e-09	-2.67755e-09	-2.61934e-09	-2.61934e-09	-2.67755e-09	-2.67755e-09	-2.67755e-09	-2.67755e-09	-2.67755e-09	-2.73576e-09	-2.67755e-09	-2.73576e-09	-2.67755e-09	-2.61934e-09	-2.67755e-09	-2.73576e-09	-2.61934e-09	-2.67755e-09	-2.67755e-09	-2.73576e-09	-2.67755e-09	-2.73576e-09	-2.67755e-09	-2.67755e-09	-2.67755e-09	-2.73576e-09	-2.67755e-09	-2.67755e-09	-2.67755e-09	-2.67755e-09	-2.67755e-09	-2.73576e-09	-2.67755e-09	-2.61934e-09	-2.67755e-09	-2.61934e-09	-2.67755e-09	-2.67755e-09	-2.67755e-09	-2.61934e-09	-2.67755e-09	-2.61934e-09	-2.67755e-09	-2.61934e-09	-2.67755e-09	-2.67755e-09	-2.67755e-09	-2.67755e-09	-2.67755e-09	-2.73576e-09	-2.67755e-09	-2.61934e-09	-2.67755e-09	-2.67755e-09	-2.67755e-09	-2.67755e-09	-2.67755e-09	-2.67755e-09	-2.67755e-09	-2.67755e-09	-2.67755e-09	-2.61934e-09	-2.67755e-09	-2.67755e-09	-2.67755e-09	-2.67755e-09	-2.67755e-09	-2.67755e-09	-2.67755e-09	-2.67755e-09	-2.67755e-09	-2.67755e-09	-2.67755e-09	-2.67755e-09	-2.67755e-09	-2.67755e-09	-2.67755e-09	-2.67755e-09	-2.67755e-09	-2.67755e-09	-2.67755e-09	-2.73576e-09	-2.67755e-09	-2.67755e-09	-2.67755e-09	-2.67755e-09	-2.67755e-09	-2.61934e-09	-2.67755e-09	-2.61934e-09	-2.67755e-09	-2.73576e-09	-2.67755e-09	-2.67755e-09	-2.67755e-09	-2.67755e-09	-2.67755e-09	-2.61934e-09	-2.67755e-09	-2.67755e-09	-2.67755e-09	-2.67755e-09	-2.67755e-09	-2.67755e-09	-2.67755e-09	-2.67755e-09	-2.67755e-09	-2.73576e-09	-2.67755e-09	-2.67755e-09	-2.67755e-09	-2.67755e-09	-2.67755e-09	-2.67755e-09	-2.67755e-09	-2.67755e-09	-2.67755e-09	-2.67755e-09	-2.67755e-09	-2.61934e-09	-2.67755e-09	-2.73576e-09	-2.67755e-09	-2.67755e-09	-2.67755e-09	-2.67755e-09	-2.67755e-09	-2.67755e-09	-2.67755e-09	-2.67755e-09	-2.67755e-09	-2.73576e-09	-2.67755e-09	-2.67755e-09	-2.61934e-09	-2.67755e-09	-2.67755e-09	-2.61934e-09	-2.67755e-09	-2.67755e-09	-2.61934e-09	-2.67755e-09	-2.67755e-09	-2.61934e-09	-2.67755e-09	-2.67755e-09	-2.67755e-09	-2.67755e-09	-2.61934e-09	-2.61934e-09	-2.61934e-09	-2.67755e-09	-2.73576e-09	-2.67755e-09	-2.67755e-09	-2.67755e-09	-2.67755e-09	-2.67755e-09	-2.67755e-09	-2.67755e-09	-2.67755e-09	-2.67755e-09	-2.73576e-09	-2.67755e-09	-2.67755e-09	-2.67755e-09	-2.67755e-09	-2.61934e-09	-2.67755e-09	-2.67755e-09	-2.61934e-09	-2.67755e-09	-2.67755e-09	-2.67755e-09	-2.67755e-09	-2.67755e-09	-2.67755e-09	-2.67755e-09	-2.67755e-09	-2.67755e-09	-2.61934e-09	-2.73576e-09	-2.73576e-09	-2.67755e-09	-2.67755e-09	-2.61934e-09	-2.67755e-09	-2.67755e-09	-2.67755e-09	-2.67755e-09	-2.67755e-09	-2.67755e-09	-2.73576e-09	-2.67755e-09	-2.67755e-09	-2.67755e-09	-2.67755e-09	-2.67755e-09	-2.67755e-09	-2.67755e-09	-2.67755e-09	-2.67755e-09	-2.67755e-09	-2.67755e-09	-2.67755e-09	-2.67755e-09	-2.67755e-09	-2.67755e-09	-2.67755e-09	-2.61934e-09	-2.73576e-09	-2.67755e-09	-2.73576e-09	-2.67755e-09	-2.67755e-09	-2.67755e-09	-2.67755e-09	-2.67755e-09	-2.67755e-09	-2.67755e-09	-2.61934e-09	-2.73576e-09	-2.73576e-09	-2.67755e-09	-2.67755e-09	-2.67755e-09	-2.67755e-09	-2.67755e-09	-2.67755e-09	-2.67755e-09	-2.67755e-09	-2.67755e-09	-2.67755e-09	-2.67755e-09	-2.67755e-09	-2.67755e-09	-2.67755e-09	-2.67755e-09	-2.67755e-09	-2.67755e-09	-2.67755e-09	-2.67755e-09	-2.67755e-09	-2.67755e-09	-2.67755e-09	-2.61934e-09	-2.67755e-09	-2.67755e-09	-2.67755e-09	-2.67755e-09	-2.67755e-09	-2.67755e-09	-2.67755e-09	-2.67755e-09	-2.67755e-09	-2.67755e-09	-2.67755e-09	-2.73576e-09	-2.67755e-09	-2.67755e-09	-2.67755e-09	-2.67755e-09	-2.67755e-09	-2.67755e-09	-2.67755e-09	-2.61934e-09	-2.61934e-09	-2.67755e-09	-2.67755e-09	-2.67755e-09	-2.67755e-09	-2.67755e-09	-2.67755e-09	-2.67755e-09	-2.67755e-09	-2.67755e-09	-2.67755e-09	-2.73576e-09	-2.67755e-09	-2.67755e-09	-2.67755e-09	-2.67755e-09	-2.67755e-09	-2.67755e-09	-2.67755e-09	-2.67755e-09	-2.67755e-09	-2.73576e-09	-2.67755e-09	-2.73576e-09	-2.67755e-09	-2.67755e-09	-2.67755e-09	-2.73576e-09	-2.67755e-09	-2.67755e-09	-2.67755e-09	-2.67755e-09	-2.67755e-09	-2.67755e-09	-2.67755e-09	-2.67755e-09	-2.67755e-09	-2.67755e-09	-2.67755e-09	-2.61934e-09	-2.67755e-09	-2.61934e-09	-2.67755e-09	-2.67755e-09	-2.67755e-09	-2.67755e-09	-2.67755e-09	-2.67755e-09	-2.67755e-09	-2.67755e-09	-2.67755e-09	-2.67755e-09	-2.67755e-09	-2.73576e-09	-2.67755e-09	-2.67755e-09	-2.67755e-09	-2.73576e-09	-2.67755e-09	-2.67755e-09	-2.61934e-09	-2.67755e-09	-2.67755e-09	-2.67755e-09	-2.67755e-09	-2.67755e-09	-2.67755e-09	-2.67755e-09	-2.67755e-09	-2.67755e-09	-2.67755e-09	-2.67755e-09	-2.67755e-09	-2.61934e-09	-2.67755e-09	-2.67755e-09	-2.67755e-09	-2.67755e-09	-2.67755e-09	-2.67755e-09	-2.67755e-09	-2.73576e-09	-2.67755e-09	-2.67755e-09	-2.67755e-09	-2.67755e-09	-2.67755e-09	-2.61934e-09	-2.61934e-09	-2.67755e-09	-2.67755e-09	-2.67755e-09	-2.67755e-09	-2.61934e-09	-2.73576e-09	-2.67755e-09	-2.67755e-09	-2.67755e-09	-2.61934e-09	-2.67755e-09	-2.67755e-09	-2.67755e-09	-2.67755e-09	-2.67755e-09	-2.73576e-09	-2.67755e-09	-2.73576e-09	-2.67755e-09	-2.67755e-09	-2.67755e-09	-2.67755e-09	-2.67755e-09	-2.73576e-09	-2.67755e-09	-2.67755e-09	-2.67755e-09	-2.73576e-09	-2.67755e-09	-2.61934e-09	-2.67755e-09	-2.67755e-09	-2.67755e-09	-2.73576e-09	-2.67755e-09	-2.67755e-09	-2.67755e-09	-2.67755e-09	-2.67755e-09	-2.61934e-09	-2.67755e-09	-2.67755e-09	-2.67755e-09	-2.73576e-09	-2.67755e-09	-2.67755e-09	-2.61934e-09	-2.67755e-09	-2.67755e-09	-2.67755e-09	-2.67755e-09	-2.67755e-09	-2.67755e-09	-2.61934e-09	-2.67755e-09	-2.67755e-09	-2.67755e-09	-2.67755e-09	-2.