<VTKFile byte_order="LittleEndian" type="PolyData" version="0.1">
 <PolyData>
     <Piece  NumberOfLines="2700" NumberOfPoints="1000">
         <Points>
             <DataArray Name="nodes" NumberOfComponents="3" type="Float64">
100	100	100	100	200	100	100	300	100	100	400	100	100	500	100	100	600	100	100	700	100	100	800	100	100	900	100	100	1000	100	200	100	100	200	200	100	200	300	100	200	400	100	200	500	100	200	600	100	200	700	100	200	800	100	200	900	100	200	1000	100	300	100	100	300	200	100	300	300	100	300	400	100	300	500	100	300	600	100	300	700	100	300	800	100	300	900	100	300	1000	100	400	100	100	400	200	100	400	300	100	400	400	100	400	500	100	400	600	100	400	700	100	400	800	100	400	900	100	400	1000	100	500	100	100	500	200	100	500	300	100	500	400	100	500	500	100	500	600	100	500	700	100	500	800	100	500	900	100	500	1000	100	600	100	100	600	200	100	600	300	100	600	400	100	600	500	100	600	600	100	600	700	100	600	800	100	600	900	100	600	1000	100	700	100	100	700	200	100	700	300	100	700	400	100	700	500	100	700	600	100	700	700	100	700	800	100	700	900	100	700	1000	100	800	100	100	800	200	100	800	300	100	800	400	100	800	500	100	800	600	100	800	700	100	800	800	100	800	900	100	800	1000	100	900	100	100	900	200	100	900	300	100	900	400	100	900	500	100	900	600	100	900	700	100	900	800	100	900	900	100	900	1000	100	1000	100	100	1000	200	100	1000	300	100	1000	400	100	1000	500	100	1000	600	100	1000	700	100	1000	800	100	1000	900	100	1000	1000	100	100	100	200	100	200	200	100	300	200	100	400	200	100	500	200	100	600	200	100	700	200	100	800	200	100	900	200	100	1000	200	200	100	200	200	200	200	200	300	200	200	400	200	200	500	200	200	600	200	200	700	200	200	800	200	200	900	200	200	1000	200	300	100	200	300	200	200	300	300	200	300	400	200	300	500	200	300	600	200	300	700	200	300	800	200	300	900	200	300	1000	200	400	100	200	400	200	200	400	300	200	400	400	200	400	500	200	400	600	200	400	700	200	400	800	200	400	900	200	400	1000	200	500	100	200	500	200	200	500	300	200	500	400	200	500	500	200	500	600	200	500	700	200	500	800	200	500	900	200	500	1000	200	600	100	200	600	200	200	600	300	200	600	400	200	600	500	200	600	600	200	600	700	200	600	800	200	600	900	200	600	1000	200	700	100	200	700	200	200	700	300	200	700	400	200	700	500	200	700	600	200	700	700	200	700	800	200	700	900	200	700	1000	200	800	100	200	800	200	200	800	300	200	800	400	200	800	500	200	800	600	200	800	700	200	800	800	200	800	900	200	800	1000	200	900	100	200	900	200	200	900	300	200	900	400	200	900	500	200	900	600	200	900	700	200	900	800	200	900	900	200	900	1000	200	1000	100	200	1000	200	200	1000	300	200	1000	400	200	1000	500	200	1000	600	200	1000	700	200	1000	800	200	1000	900	200	1000	1000	200	100	100	300	100	200	300	100	300	300	100	400	300	100	500	300	100	600	300	100	700	300	100	800	300	100	900	300	100	1000	300	200	100	300	200	200	300	200	300	300	200	400	300	200	500	300	200	600	300	200	700	300	200	800	300	200	900	300	200	1000	300	300	100	300	300	200	300	300	300	300	300	400	300	300	500	300	300	600	300	300	700	300	300	800	300	300	900	300	300	1000	300	400	100	300	400	200	300	400	300	300	400	400	300	400	500	300	400	600	300	400	700	300	400	800	300	400	900	300	400	1000	300	500	100	300	500	200	300	500	300	300	500	400	300	500	500	300	500	600	300	500	700	300	500	800	300	500	900	300	500	1000	300	600	100	300	600	200	300	600	300	300	600	400	300	600	500	300	600	600	300	600	700	300	600	800	300	600	900	300	600	1000	300	700	100	300	700	200	300	700	300	300	700	400	300	700	500	300	700	600	300	700	700	300	700	800	300	700	900	300	700	1000	300	800	100	300	800	200	300	800	300	300	800	400	300	800	500	300	800	600	300	800	700	300	800	800	300	800	900	300	800	1000	300	900	100	300	900	200	300	900	300	300	900	400	300	900	500	300	900	600	300	900	700	300	900	800	300	900	900	300	900	1000	300	1000	100	300	1000	200	300	1000	300	300	1000	400	300	1000	500	300	1000	600	300	1000	700	300	1000	800	300	1000	900	300	1000	1000	300	100	100	400	100	200	400	100	300	400	100	400	400	100	500	400	100	600	400	100	700	400	100	800	400	100	900	400	100	1000	400	200	100	400	200	200	400	200	300	400	200	400	400	200	500	400	200	600	400	200	700	400	200	800	400	200	900	400	200	1000	400	300	100	400	300	200	400	300	300	400	300	400	400	300	500	400	300	600	400	300	700	400	300	800	400	300	900	400	300	1000	400	400	100	400	400	200	400	400	300	400	400	400	400	400	500	400	400	600	400	400	700	400	400	800	400	400	900	400	400	1000	400	500	100	400	500	200	400	500	300	400	500	400	400	500	500	400	500	600	400	500	700	400	500	800	400	500	900	400	500	1000	400	600	100	400	600	200	400	600	300	400	600	400	400	600	500	400	600	600	400	600	700	400	600	800	400	600	900	400	600	1000	400	700	100	400	700	200	400	700	300	400	700	400	400	700	500	400	700	600	400	700	700	400	700	800	400	700	900	400	700	1000	400	800	100	400	800	200	400	800	300	400	800	400	400	800	500	400	800	600	400	800	700	400	800	800	400	800	900	400	800	1000	400	900	100	400	900	200	400	900	300	400	900	400	400	900	500	400	900	600	400	900	700	400	900	800	400	900	900	400	900	1000	400	1000	100	400	1000	200	400	1000	300	400	1000	400	400	1000	500	400	1000	600	400	1000	700	400	1000	800	400	1000	900	400	1000	1000	400	100	100	500	100	200	500	100	300	500	100	400	500	100	500	500	100	600	500	100	700	500	100	800	500	100	900	500	100	1000	500	200	100	500	200	200	500	200	300	500	200	400	500	200	500	500	200	600	500	200	700	500	200	800	500	200	900	500	200	1000	500	300	100	500	300	200	500	300	300	500	300	400	500	300	500	500	300	600	500	300	700	500	300	800	500	300	900	500	300	1000	500	400	100	500	400	200	500	400	300	500	400	400	500	400	500	500	400	600	500	400	700	500	400	800	500	400	900	500	400	1000	500	500	100	500	500	200	500	500	300	500	500	400	500	500	500	500	500	600	500	500	700	500	500	800	500	500	900	500	500	1000	500	600	100	500	600	200	500	600	300	500	600	400	500	600	500	500	600	600	500	600	700	500	600	800	500	600	900	500	600	1000	500	700	100	500	700	200	500	700	300	500	700	400	500	700	500	500	700	600	500	700	700	500	700	800	500	700	900	500	700	1000	500	800	100	500	800	200	500	800	300	500	800	400	500	800	500	500	800	600	500	800	700	500	800	800	500	800	900	500	800	1000	500	900	100	500	900	200	500	900	300	500	900	400	500	900	500	500	900	600	500	900	700	500	900	800	500	900	900	500	900	1000	500	1000	100	500	1000	200	500	1000	300	500	1000	400	500	1000	500	500	1000	600	500	1000	700	500	1000	800	500	1000	900	500	1000	1000	500	100	100	600	100	200	600	100	300	600	100	400	600	100	500	600	100	600	600	100	700	600	100	800	600	100	900	600	100	1000	600	200	100	600	200	200	600	200	300	600	200	400	600	200	500	600	200	600	600	200	700	600	200	800	600	200	900	600	200	1000	600	300	100	600	300	200	600	300	300	600	300	400	600	300	500	600	300	600	600	300	700	600	300	800	600	300	900	600	300	1000	600	400	100	600	400	200	600	400	300	600	400	400	600	400	500	600	400	600	600	400	700	600	400	800	600	400	900	600	400	1000	600	500	100	600	500	200	600	500	300	600	500	400	600	500	500	600	500	600	600	500	700	600	500	800	600	500	900	600	500	1000	600	600	100	600	600	200	600	600	300	600	600	400	600	600	500	600	600	600	600	600	700	600	600	800	600	600	900	600	600	1000	600	700	100	600	700	200	600	700	300	600	700	400	600	700	500	600	700	600	600	700	700	600	700	800	600	700	900	600	700	1000	600	800	100	600	800	200	600	800	300	600	800	400	600	800	500	600	800	600	600	800	700	600	800	800	600	800	900	600	800	1000	600	900	100	600	900	200	600	900	300	600	900	400	600	900	500	600	900	600	600	900	700	600	900	800	600	900	900	600	900	1000	600	1000	100	600	1000	200	600	1000	300	600	1000	400	600	1000	500	600	1000	600	600	1000	700	600	1000	800	600	1000	900	600	1000	1000	600	100	100	700	100	200	700	100	300	700	100	400	700	100	500	700	100	600	700	100	700	700	100	800	700	100	900	700	100	1000	700	200	100	700	200	200	700	200	300	700	200	400	700	200	500	700	200	600	700	200	700	700	200	800	700	200	900	700	200	1000	700	300	100	700	300	200	700	300	300	700	300	400	700	300	500	700	300	600	700	300	700	700	300	800	700	300	900	700	300	1000	700	400	100	700	400	200	700	400	300	700	400	400	700	400	500	700	400	600	700	400	700	700	400	800	700	400	900	700	400	1000	700	500	100	700	500	200	700	500	300	700	500	400	700	500	500	700	500	600	700	500	700	700	500	800	700	500	900	700	500	1000	700	600	100	700	600	200	700	600	300	700	600	400	700	600	500	700	600	600	700	600	700	700	600	800	700	600	900	700	600	1000	700	700	100	700	700	200	700	700	300	700	700	400	700	700	500	700	700	600	700	700	700	700	700	800	700	700	900	700	700	1000	700	800	100	700	800	200	700	800	300	700	800	400	700	800	500	700	800	600	700	800	700	700	800	800	700	800	900	700	800	1000	700	900	100	700	900	200	700	900	300	700	900	400	700	900	500	700	900	600	700	900	700	700	900	800	700	900	900	700	900	1000	700	1000	100	700	1000	200	700	1000	300	700	1000	400	700	1000	500	700	1000	600	700	1000	700	700	1000	800	700	1000	900	700	1000	1000	700	100	100	800	100	200	800	100	300	800	100	400	800	100	500	800	100	600	800	100	700	800	100	800	800	100	900	800	100	1000	800	200	100	800	200	200	800	200	300	800	200	400	800	200	500	800	200	600	800	200	700	800	200	800	800	200	900	800	200	1000	800	300	100	800	300	200	800	300	300	800	300	400	800	300	500	800	300	600	800	300	700	800	300	800	800	300	900	800	300	1000	800	400	100	800	400	200	800	400	300	800	400	400	800	400	500	800	400	600	800	400	700	800	400	800	800	400	900	800	400	1000	800	500	100	800	500	200	800	500	300	800	500	400	800	500	500	800	500	600	800	500	700	800	500	800	800	500	900	800	500	1000	800	600	100	800	600	200	800	600	300	800	600	400	800	600	500	800	600	600	800	600	700	800	600	800	800	600	900	800	600	1000	800	700	100	800	700	200	800	700	300	800	700	400	800	700	500	800	700	600	800	700	700	800	700	800	800	700	900	800	700	1000	800	800	100	800	800	200	800	800	300	800	800	400	800	800	500	800	800	600	800	800	700	800	800	800	800	800	900	800	800	1000	800	900	100	800	900	200	800	900	300	800	900	400	800	900	500	800	900	600	800	900	700	800	900	800	800	900	900	800	900	1000	800	1000	100	800	1000	200	800	1000	300	800	1000	400	800	1000	500	800	1000	600	800	1000	700	800	1000	800	800	1000	900	800	1000	1000	800	100	100	900
[...]
         <CellData Scalars="Cell Data">
             <DataArray type="Float32" Name="radii" format="ascii">
9.98889	10.9427	15.3577	15.3478	8.6751	39.8932	30.9718	27.9843	24.7639	15.2259	23.454	30.8757	25.4251	33.1079	27.9559	25.9714	34.6411	28.7087	13.7432	18.109	9.34583	15.7885	22.4362	11.4102	20.2915	13.766	11.7005	14.363	20.8623	16.9711	16.458	27.8326	22.5191	20.5576	9.66553	8.26816	14.6636	9.76992	22.9156	31.6729	26.1994	16.4295	30.712	25.2804	18.5771	21.2291	10.7824	8.27064	35.0915	37.8954	18.2169	20.3692	28.4805	9.42643	25.5235	28.7248	11.8049	19.8873	29.1596	36.7321	15.6351	10.2818	25.8091	21.5318	17.7548	15.103	8.38133	35.1512	14.8769	8.62077	9.49027	20.7218	8.48661	27.3394	26.4157	8.06499	22.5892	13.1853	12.8591	31.6925	9.00529	15.7367	37.1612	9.23219	21.3031	12.1955	11.654	13.857	25.185	15.7811	25.2733	35.0773	34.7204	19.0122	12.165	22.1395	9.32009	13.9665	13.1137	37.0679	19.7619	15.1221	12.6897	18.8149	18.8563	31.8326	17.9277	38.4044	8.70911	21.3008	15.9211	13.1355	17.6053	39.8237	15.2632	36.2895	18.9022	15.1213	9.01771	9.26434	32.1425	9.96837	12.8177	14.5947	8.98931	11.1923	11.5651	15.9916	10.0275	21.3875	17.0568	24.3931	11.1313	11.8905	16.7853	15.2972	13.5823	10.0656	17.9093	14.6503	14.812	28.7498	8.73329	10.952	37.2708	14.0677	8.87273	11.6614	9.05126	38.4679	13.1884	10.5157	9.46045	30.0277	19.7323	34.0308	15.0355	15.8649	18.6277	22.0535	18.4594	12.0549	19.6682	36.6045	19.6995	16.2595	9.02013	39.0158	8.28906	8.09561	13.7916	35.265	14.0281	34.6614	32.2903	14.1333	19.7901	14.7459	32.4048	24.3062	24.1949	21.3683	21.9065	24.8215	32.4812	12.928	10.4961	13.7607	28.2166	31.7034	15.4952	19.5307	28.8816	27.4277	27.8191	18.6882	23.1504	9.94466	18.6885	8.20955	16.7379	9.51589	33.0177	30.7752	20.8453	35.4793	9.88375	24.4735	15.6887	25.052	27.6089	35.8788	36.84	19.1864	34.8697	15.9511	25.6019	18.832	32.0162	10.3209	27.121	31.3356	25.5172	10.4676	22.5413	30.2895	10.6593	38.4408	13.2853	10.5602	22.2907	8.32975	21.0683	16.0366	36.9497	12.8928	17.5421	8.29003	16.1929	22.3517	10.6639	13.9459	26.229	15.7912	11.9929	10.2045	8.24024	27.7398	16.8485	12.8308	9.25008	25.3225	32.3329	13.6727	16.0622	37.3039	12.6649	15.0164	15.6003	21.0044	14.9831	35.5991	28.0617	12.6207	9.18382	33.8565	26.8141	14.335	23.3329	10.7237	14.0736	25.0862	19.4555	21.7841	19.4056	15.9281	17.3038	24.293	39.178	11.5676	36.1808	13.2948	18.519	12.9954	37.759	24.297	13.5138	30.0848	20.7666	19.3387	16.3647	16.2363	27.8375	11.3238	10.1252	23.1826	13.6311	11.6484	11.2267	9.20004	15.5429	23.4203	29.6522	13.446	8.80111	11.4807	9.83269	15.4065	8.42527	26.7047	19.995	27.8625	34.7696	33.3652	12.9204	9.74873	14.6244	32.0529	32.7984	21.6543	14.2398	20.4862	11.9435	9.63308	8.30918	8.44025	34.8747	20.1208	15.1485	29.5865	20.4209	10.0522	24.6419	16.2789	21.7527	37.6336	8.7024	36.1204	10.7891	9.48583	13.633	28.926	13.2775	8.69938	26.547	22.0088	26.5277	26.9288	36.3664	13.6497	30.809	16.6203	17.6151	8.54398	33.2215	22.3039	15.0524	8.99583	12.1525	14.2429	22.3674	29.2758	14.6408	13.0272	8.69292	32.2034	11.4112	29.5149	24.7274	14.038	11.5442	9.85444	11.1163	27.8651	38.0573	22.9424	12.0335	28.2089	21.4869	30.4546	18.8302	25.0149	10.8693	10.8966	9.19144	32.4134	18.2486	9.91592	34.146	17.5712	10.6054	8.90303	9.16859	19.7202	14.5924	30.8113	27.8615	19.5824	14.3988	26.8625	29.5283	17.3511	23.7092	29.5714	14.8926	19.429	11.3446	16.4045	12.5371	9.85765	29.4354	21.92	22.2487	33.989	29.4289	15.5404	12.7117	18.8174	32.7221	37.3735	37.6549	15.503	20.0613	9.76471	16.4239	27.8933	10.4913	9.94532	13.8336	10.8025	10.6057	9.30256	14.9689	10.3266	35.1117	8.28852	8.39148	12.2411	32.4789	31.7219	12.3597	8.74886	26.3925	12.3436	34.7671	15.3924	17.3435	10.8025	29.3832	34.8656	30.4009	27.4867	15.0899	9.05742	8.31894	19.1064	28.9971	10.5766	15.0243	15.9425	23.1917	9.03325	8.71467	10.6674	19.0832	16.0576	37.9178	18.6372	33.4452	10.8642	8.28366	31.3165	16.6292	9.41516	20.127	20.0737	12.4231	33.1374	30.304	16.739	11.7799	12.9477	34.0979	15.4282	20.5809	10.3889	20.8972	38.6347	33.7952	15.1787	12.1603	20.3624	19.8609	27.1402	9.1593	25.1524	39.263	10.6274	15.7464	17.6135	32.5385	10.0844	8.26568	13.7548	32.7797	11.8751	10.4788	25.3347	8.48966	24.5131	17.0756	16.2449	29.754	14.926	17.588	12.4166	30.0268	29.0614	27.0847	8.66143	16.3796	17.8413	18.3642	38.0929	10.5341	22.2319	26.9813	15.1265	12.2801	8.94273	26.5108	13.6629	16.0692	13.0915	13.817	37.1387	23.2697	32.8362	16.2046	28.7918	31.6379	10.4711	37.1668	9.57433	20.3122	15.1816	25.3704	13.1646	22.3233	24.5743	8.96679	20.985	18.9144	14.4809	10.2103	9.63712	26.0796	16.8957	33.3745	12.7274	29.3176	10.4415	12.5705	9.11337	30.854	32.7426	16.2856	13.9631	30.3579	16.6264	10.7026	19.8257	19.545	26.9692	26.4003	39.8888	11.6005	36.9819	13.216	25.6174	17.7919	17.2746	8.58231	12.7943	20.4157	10.0545	15.1312	13.3998	18.6324	11.0963	24.7558	14.3096	8.76431	38.3218	27.3397	26.5782	30.5984	10.176	10.1125	8.62436	12.1567	26.346	10.1673	37.1315	17.2857	30.7089	20.3805	19.2747	15.0023	23.2328	15.6622	30.0227	12.4251	9.29841	19.9779	10.4664	10.8075	39.8874	27.4709	13.6194	15.6868	18.258	12.7017	12.9159	11.6304	11.4326	10.6219	32.2135	27.1673	38.9182	21.889	10.655	17.9113	34.3832	21.5129	29.7735	11.9301	10.0979	37.8718	17.7468	33.2269	19.881	13.4206	24.8509	16.994	10.26	28.0604	39.7641	31.2308	23.5769	28.1951	28.8242	8.03148	34.469	8.41271	8.95444	22.4221	10.0835	27.1217	39.1303	25.7332	9.98558	12.6228	28.4244	21.2654	17.6509	12.5423	10.5092	13.6672	14.5917	13.0932	28.2265	11.0786	12.3447	18.378	16.4453	16.5402	8.58358	16.9673	29.3654	34.2417	28.2978	14.0989	22.483	14.5719	16.9993	36.9507	18.2873	23.4946	16.9444	22.1226	19.9343	8.40713	11.9032	25.1569	18.5428	28.6731	10.4581	8.73963	23.5027	20.8775	21.6585	28.6972	11.8859	35.9473	33.248	34.2178	28.0519	12.3357	31.6249	36.7878	37.2409	33.474	27.655	11.4731	10.372	19.2301	33.8508	18.5866	18.6531	24.9663	9.77941	16.5791	13.9049	12.3686	11.6483	29.5165	38.1394	27.2116	36.9607	18.5367	14.0742	37.1357	12.5179	9.22256	20.3371	34.009	17.048	15.1892	21.978	15.5443	20.5165	13.596	10.0185	20.7322	25.9775	25.9791	20.6103	9.10857	24.8519	11.7547	8.46926	16.7595	28.1799	14.7583	15.5503	24.851	18.4454	18.6877	35.9342	14.1082	21.8097	10.2683	27.7494	14.4804	25.4694	21.0553	34.5076	9.56324	9.28814	36.4465	18.1805	28.6687	17.1859	8.69241	27.372	14.2218	17.5573	21.9858	22.3663	27.5864	20.9749	11.3521	26.1206	9.72043	32.3544	38.7073	29.0457	16.3598	14.9577	33.4436	8.27832	33.9008	12.5377	14.6106	12.9905	15.2109	25.6076	39.7579	15.4714	11.6148	12.8428	20.9132	24.606	23.9494	20.9639	24.8714	22.674	32.3537	22.9331	38.9083	22.5679	27.0344	8.80725	28.8789	27.5024	16.2049	10.3866	9.80944	12.7854	25.449	17.7829	19.0354	33.9028	28.4533	19.9897	8.1398	8.89695	20.9355	10.8432	20.473	20.2668	24.5886	30.1733	16.0769	13.6018	38.4977	15.7662	14.7772	18.56	24.2047	9.22496	14.6854	9.42714	25.9413	33.9824	35.59	20.7291	15.3392	31.1127	13.4324	11.6284	11.4465	8.95977	10.0927	33.7589	16.3033	8.50916	15.1184	12.8284	8.32377	9.26275	29.2617	16.2435	33.6233	10.1004	14.1466	36.3485	20.2771	34.245	32.2206	20.2564	24.3825	36.5744	11.9977	29.9005	32.2007	8.90978	13.8471	18.0382	26.9498	16.0386	17.6949	8.22505	10.4515	14.3678	17.239	38.1375	13.199	26.1218	8.23239	19.4426	28.951	13.8236	11.6797	11.6032	17.8783	21.0714	35.6302	13.2754	21.9092	10.1584	14.7302	10.9267	27.5427	14.992	23.9594	19.8307	15.7488	24.8195	11.4907	31.1928	28.0172	14.2356	18.7569	28.7072	29.504	31.7981	31.2213	29.8528	24.101	11.1029	39.7969	9.53749	11.634	14.0016	8.09827	12.2827	36.1313	12.6945	23.4012	32.2362	9.44297	23.896	25.6317	35.0515	9.49545	23.0312	20.5636	24.3501	19.8009	36.274	32.7862	14.9543	15.3017	11.3195	34.0541	12.9028	38.9094	8.11656	39.4787	13.0568	11.6566	8.91114	28.4069	16.2313	20.4784	15.4826	32.4894	21.8772	29.8895	13.8891	28.3835	9.70638	37.1478	8.97832	20.7399	12.0292	13.0012	18.3184	8.54521	14.0491	12.1851	28.3923	30.1457	19.3416	22.9583	15.9925	10.3313	31.0194	15.0668	15.6894	38.3999	38.9737	13.7213	30.751	28.6318	13.5616	20.2077	36.249	15.632	16.1781	17.2978	34.0176	9.76296	10.2323	20.5532	39.6484	24.4673	17.1859	28.681	10.1213	19.1028	22.3339	10.7053	12.8109	13.7512	23.3043	36.0452	8.08503	24.3956	21.0246	34.9403	16.6382	28.908	18.4226	9.40453	23.3114	24.2577	36.3656	10.6872	9.38984	37.6182	12.9619	13.9628	9.11294	13.76	12.2262	13.4653	19.8867	10.1426	9.77612	19.0776	39.2353	27.0011	15.1941	11.86	29.4858	33.3562	20.6911	19.0756	11.7824	34.4354	12.2417	16.7948	22.4011	35.1274	11.3027	33.7011	29.4605	10.6206	15.5265	35.1186	22.8615	12.2353	39.6036	18.9145	16.4801	9.16051	9.83778	16.9247	18.6138	30.4188	9.22497	20.4447	11.9794	31.2507	18.8698	29.5013	16.2413	20.8343	11.3473	10.4813	10.9462	16.6531	12.6615	15.0505	26.844	8.25964	39.1826	37.7682	12.3809	29.708	9.8055	21.7586	9.86222	14.2834	35.6235	20.2596	15.6167	9.31872	10.8143	32.1961	8.95783	21.4971	39.0876	8.83517	14.4877	17.9423	11.8932	39.7565	37.4345	36.1853	11.4479	32.4768	20.0793	15.7687	24.7575	18.5448	26.6414	8.2898	26.4699	11.1415	24.4973	29.1413	35.7055	10.0841	23.1477	11.8417	23.0581	8.43686	21.5998	28.0978	32.6232	9.81723	8.91416	9.08098	24.8205	24.9138	29.0048	27.9334	12.0993	21.5995	8.81564	10.7486	9.69226	35.3951	8.02454	13.6185	20.6077	14.8395	20.8837	21.9882	27.2046	20.6034	11.5613	10.1299	15.9377	22.8975	23.3048	24.8327	19.5941	11.6362	34.3399	15.0881	26.61	25.5355	23.3109	27.3914	33.9658	31.79	36.4328	25.8314	32.7151	38.7963	14.1023	17.3502	17.8569	11.2457	15.6952	15.2602	30.964	32.1958	22.8772	13.643	26.6547	19.1725	20.7119	11.8343	27.0878	19.2948	21.8229	16.747	30.3725	19.614	20.0774	23.0451	18.0224	25.7892	12.8237	27.2612	26.7138	13.5303	9.22564	24.4636	23.8232	8.23787	21.5779	27.7044	15.7227	8.47902	15.9768	16.1483	16.039	14.9001	16.2401	11.4558	9.75875	34.5597	9.48782	14.2692	10.3332	12.5328	17.6565	16.3137	18.4095	16.196	20.5868	8.24368	19.0508	9.85502	24.0597	8.70023	9.84444	12.3752	20.363	14.1188	33.7168	31.2475	21.9785	36.2487	10.3078	14.335	11.4277	34.6705	9.81226	16.3612	9.03978	35.3958	20.8613	11.0959	33.3602	29.6074	23.344	21.6105	19.5561	22.8487	9.15532	14.6625	12.093	27.674	22.2082	29.1996	10.7069	37.5542	20.1592	9.09354	24.5604	16.7661	16.2004	15.238	38.0439	18.0722	23.3377	39.1864	33.6987	12.5703	23.6778	19.2542	11.1336	29.5403	36.182	19.6175	25.7942	32.4432	11.3926	8.77163	12.2579	26.8839	31.2421	9.79735	18.2428	14.4056	10.9793	10.7494	17.0945	20.5206	25.6167	30.4594	12.5061	18.2795	21.3438	35.541	30.8209	32.2629	20.4327	15.0435	11.6861	15.8957	39.8942	27.3511	11.8497	19.3218	12.3532	12.3607	9.44512	26.7374	15.4742	12.3192	13.6955	9.53729	25.3014	16.6071	37.7641	34.6556	28.1662	16.1532	16.4327	37.2469	10.9308	29.1694	35.0087	16.2188	21.3834	10.958	22.5148	9.9268	34.5966	8.50007	13.9378	16.8083	28.426	15.0281	14.8148	33.0713	22.1277	19.2074	19.1364	17.2474	11.1472	20.1962	10.6138	13.7545	20.1671	26.128	28.0333	9.24498	13.5616	17.3181	26.6392	38.4278	12.7538	39.0137	23.6031	19.0271	9.95802	8.38327	26.8665	24.1989	28.171	16.1236	15.3774	22.9961	8.68991	10.5653	19.0557	23.716	30.9607	15.0767	13.4843	11.5451	17.3594	39.4607	20.0379	31.2368	11.7112	16.1278	24.0932	10.9321	30.1305	21.6546	22.5853	10.0405	37.824	8.44592	8.15497	8.62602	17.9503	17.021	35.5046	13.7307	12.9317	22.8273	17.6416	23.8712	22.4784	24.8228	22.4023	8.07622	14.9037	14.7741	23.4408	28.7436	28.3231	28.5049	31.0072	14.3396	39.6878	8.57997	27.6008	18.1724	15.3079	22.6019	12.9645	29.3679	39.0017	12.7378	9.35365	13.5952	17.8242	10.6179	16.7181	13.4589	30.0524	23.9283	13.7687	9.95511	14.9895	39.381	8.76565	8.94666	12.2873	9.87034	20.5384	21.2235	31.4538	9.24237	30.2201	20.3233	25.7296	25.363	13.0144	23.8985	8.60274	17.0267	16.1738	22.5779	23.8737	19.1974	12.6343	10.1978	36.9037	29.6878	20.6424	14.185	15.4973	9.5186	24.2596	10.8484	12.9219	13.9357	25.9822	11.7232	37.6787	24.4281	28.97	28.7197	13.2045	20.7041	29.3059	34.5301	14.9519	26.0902	10.4846	14.9719	22.1999	20.2274	13.4808	13.5069	10.2169	8.87967	21.7128	9.60744	19.6249	32.3511	33.8753	16.1822	8.51884	11.9106	31.9241	33.0384	25.4118	15.6221	37.3511	8.85494	27.599	14.3845	26.4064	24.7065	25.126	13.4165	30.6672	23.4259	30.32	15.5233	10.247	20.8439	11.073	22.2224	24.7049	12.6385	12.666	11.0794	9.56117	14.0918	33.6694	38.0334	26.6891	14.4883	29.3752	13.4339	22.3093	19.8168	8.51579	25.0511	30.0242	9.66927	32.4816	12.3347	14.0397	8.45268	9.59878	8.14388	21.0925	18.4532	8.21536	21.6913	11.4425	12.9545	26.5777	26.2429	14.0448	13.467	27.3014	10.2992	38.7205	12.9923	15.9021	24.195	35.1416	22.2535	18.0662	12.1883	8.9347	12.518	35.7594	39.7782	20.7025	16.8497	31.7288	22.2164	18.2386	11.0615	14.3527	8.97788	22.8233	24.0188	9.25873	13.0133	21.7615	13.6261	17.579	12.5421	25.2313	24.0225	19.9949	20.7746	28.2544	19.5445	16.4541	9.3053	9.124	32.1532	13.4473	13.1262	9.11983	8.10306	9.76506	15.4752	20.7839	15.904	10.6222	15.9876	18.8708	15.3438	29.2378	20.2473	18.5415	29.5249	22.6499	26.7483	37.0982	16.2641	28.7955	10.1056	30.8841	9.71452	28.7545	10.6621	11.4914	12.2413	22.4249	29.3569	18.6864	15.0071	15.5874	11.3148	26.6022	27.2281	11.1802	37.2777	31.5804	9.51494	23.993	11.649	9.08715	12.5835	8.4334	29.7943	8.37342	11.5647	16.2978	16.3198	8.62676	29.4355	28.4758	17.7054	26.0333	8.28275	30.6807	21.0942	32.298	21.7297	10.0141	33.0523	24.6772	35.1841	36.4887	21.8738	36.9129	11.6518	8.99711	14.6259	9.75256	35.2162	10.0992	34.0797	23.8979	23.4159	32.5762	26.5475	21.379	9.00499	23.499	18.1904	11.0631	12.5271	32.7032	14.8067	24.943	16.3953	8.28253	9.56286	38.8871	23.3555	12.9281	8.86116	10.9	11.9439	13.8624	35.858	9.64103	20.2773	13.9975	13.8277	24.6191	8.28602	13.9387	15.624	11.7671	8.55765	16.9758	10.4316	39.2994	10.6501	22.1935	18.7677	23.5687	14.1394	31.029	23.8167	21.1037	19.9847	8.99931	22.508	31.2977	26.0932	8.32929	13.2224	10.3494	25.4707	33.5086	24.3041	9.56547	18.0834	14.2771	25.6504	25.9057	25.8464	9.28347	28.1985	8.36736	12.0645	35.3756	12.741	14.7905	29.6746	8.58488	11.7558	14.5299	19.4295	15.3426	15.2707	13.0395	35.899	34.0207	14.1374	16.2314	13.2188	18.2665	15.2227	20.8763	33.0619	32.2739	14.4187	10.5948	11.7843	9.62118	26.4139	24.0462	16.5839	20.7007	8.98004	8.69929	11.4678	9.15299	24.059	27.8339	10.7071	16.1811	30.8595	39.8494	18.9056	19.8335	20.5567	15.5328	25.7629	33.497	13.0826	30.2816	32.9598	17.3615	34.727	30.2636	13.3777	14.0471	20.949	13.2131	15.1019	10.0342	31.2779	12.0538	8.19613	23.5715	11.3826	39.8289	8.89476	32.5647	9.97291	24.2343	32.8063	31.2327	20.5789	27.3885	10.4974	29.8534	11.3885	9.6111	8.1259	26.3663	38.1738	19.4587	12.8497	35.0105	35.7903	16.3454	9.52856	9.68258	23.2828	23.0283	10.4543	17.9515	31.4933	30.9836	37.1488	20.6921	22.1319	8.67821	36.9002	33.4121	19.0065	16.7065	33.1488	37.5676	8.25409	20.5104	31.6268	35.9222	13.4619	35.1851	28.0547	12.3347	8.79046	19.4392	25.8024	31.4231	11.4597	32.8271	13.217	26.0615	24.7339	21.4516	12.4314	37.5948	21.0945	9.63148	18.0919	12.5951	15.4722	14.8407	9.33425	8.07282	31.9917	19.9745	13.3287	35.3435	26.8575	37.6529	18.1749	9.0249	18.9832	19.7383	14.5639	12.135	11.1017	38.6871	20.9814	11.9488	11.8217	16.578	8.88785	13.8589	31.8173	8.0835	14.9194	10.3804	12.1505	25.6115	11.5309	16.0342	28.279	15.6004	10.6532	26.497	27.8173	14.5216	8.1743	13.3918	8.67616	14.9154	10.3066	35.8756	31.6215	33.4975	15.0661	30.1434	25.5342	10.1168	15.4371	11.0208	21.286	9.16718	9.97342	34.4656	24.7616	17.7736	19.5312	35.6479	15.3323	36.0968	33.3229	24.5263	26.6218	20.7349	11.4169	28.6826	10.2677	21.6756	16.6738	19.6018	37.2849	17.0024	25.3978	8.21643	14.0713	9.87187	13.2531	24.0072	16.2294	33.0427	23.4722	17.2768	24.2237	31.3275	33.2644	11.1377	24.733	17.6454	9.32174	23.2735	30.4745	11.0335	13.3125	11.4413	16.2342	16.7554	17.7479	21.8684	8.06282	12.2885	38.4598	32.531	19.8305	23.8425	10.2711	21.9978	38.9781	20.5628	26.8115	11.9275	21.6049	27.6991	12.0936	19.3563	18.3798	19.4209	13.1436	13.0518	10.8482	13.013	9.09895	20.1601	9.30215	26.6322	37.5081	8.87857	10.0597	16.3608	32.8897	28.3664	12.7983	15.3562	39.9426	10.4046	29.8009	9.20005	39.87	19.9802	12.3566	18.5186	26.4772	10.6374	16.572	29.5049	10.6944	9.19642	34.8756	39.1384	28.4482	20.5703	14.5395	10.2087	36.3231	30.1716	9.33511	10.522	28.4668	20.1515	13.3993	13.4935	32.3264	31.6171	24.6674	23.2379	20.5033	8.6932	16.1794	32.7737	18.7281	13.0374	29.7022	35.2723	12.8971	23.3355	16.1463	29.1501	18.7973	12.6648	10.5457	34.2747	21.6	14.6913	24.5752	19.6044	18.5807	12.1416	21.9503	22.8726	8.97442	8.77245	25.5197	32.4141	28.3253	24.0728	16.1198	20.1012	8.28152	10.1431	9.36485	31.3216	13.5744	10.9229	34.9252	25.7244	12.9234	38.7707	15.6633	8.3081	8.01173	19.4399	26.5901	23.1083	14.63	9.43766	21.0528	18.0384	9.57788	10.3121	24.3276	9.54886	8.36314	19.9376	17.0751	33.8046	19.9559	8.47581	9.31765	23.5618	27.2739	13.5793	29.3698	12.9795	9.43398	15.7285	14.4614	15.5333	28.0272	28.9418	10.8652	14.6096	19.5953	8.6891	13.8985	27.1329	18.4439	12.5739	10.3951	13.7798	19.1551	13.6796	14.0761	23.7385	15.6102	12.8292	9.38465	9.38559	11.266	9.30795	29.3205	10.414	12.8726	17.8187	32.5246	30.2325	20.634	8.9526	15.7493	12.1405	17.0995	11.638	14.4214	19.0978	36.6263	15.1696	9.23459	9.50264	28.5055	18.4501	23.6742	17.4301	37.0963	28.3395	10.8919	17.6475	9.56758	14.4844	23.5228	21.7804	32.8848	8.94252	20.7252	25.3152	12.668	8.63076	9.22408	14.2857	22.2153	11.4336	15.9016	11.2119	36.9089	23.594	14.8208	14.5132	22.704	12.1488	13.7797	12.9714	30.5242	24.7509	29.462	8.99089	17.67	25.3323	13.9841	20.1966	29.8055	25.6274	13.4158	30.294	36.5825	8.01369	21.7134	21.1774	33.0586	8.3312	29.0041	8.61837	39.6974	16.1618	10.8472	10.1918	10.6515	17.8556	28.8535	39.2039	16.2591	11.2321	29.8935	13.322	9.86574	15.5417	16.8172	12.9485	14.5084	15.794	16.4574	19.5362	18.5398	18.2677	8.53173	21.3301	11.307	25.4043	34.6409	21.244	22.4537	15.002	37.9698	22.2663	8.4766	13.0169	14.3858	22.2304	20.3767	10.7688	12.3399	34.6896	8.59927	13.397	12.8876	14.1072	20.2313	9.02239	11.1006	21.2428	11.259	34.9908	19.3121	18.9506	36.7658	35.5202	37.1914	12.1889	9.34405	21.2126	8.33585	33.3295	34.6835	15.4482	32.5207	10.1478	24.7288	17.6604	32.5778	14.967	21.9816	18.7292	9.2735	33.3859	30.9404	28.7332	14.9135	9.55672	18.561	17.7195	8.42227	23.0761	38.4657	19.4654	11.1154	8.55777	9.14442	27.7225	13.0906	19.888	18.5779	30.1351	25.2635	17.8315	9.53363	22.6913	37.6777	8.25247	26.4539	11.9139	36.3952	25.6884	19.37	10.663	22.5916	8.23607	11.1931	12.1487	20.1262	29.2993	32.1723	15.4178	16.085	20.6492	8.6277	8.59221	21.2631	32.5233	28.7924	17.6068	13.5786	31.4518	16.7806	30.026	8.15099	21.9149	10.6713	18.0217	12.1793	8.16198	38.5805	35.9424	36.9267	19.2659	8.08303	15.761	20.2761	8.24884	17.0559	30.0011	24.6838	16.0328	15.3257	17.1455	16.2793	10.7796	13.6927	13.482	38.7208	8.76091	13.9773	8.84348	17.7849	8.1042	18.5606	18.157	22.8444	27.4153	20.1963	8.85006	17.923	9.77294	11.6652	8.33513	24.4771	13.2513	19.4932	21.4379	17.3535	19.5377	13.0795	38.017	16.8253	34.1648	9.09597	11.0061	26.0564	36.7302	9.96819	20.0473	11.0568	8.16957	8.54402	13.2021	27.6462	13.9473	11.1647	38.0769	26.5862	23.0887	10.571	11.8018	23.7938	12.2945	17.8727	33.364	20.1137	8.91398	37.4461	9.85934	14.7174	8.19203	9.12646	36.6436	29.7504	28.7103	31.1401	16.0623	14.257	25.5169	22.4935	37.6494	9.02321	11.2649	14.8325	11.4123	30.1581	20.2824	13.0883	9.74209	37.1291	30.0507	8.95369	13.0465	22.0584	12.8136	9.04043	11.092	35.6996	13.4301	12.8212	32.105	12.9769	11.3263	10.4016	12.9277	11.303	16.3467	10.2456	11.8223	28.8681	8.83721	34.4379	25.077	20.4233	21.783	18.7674	36.1028	9.68572	38.2379	29.1058	8.09848	37.5265	21.8015	26.1198	8.90143	24.4668	10.1448	13.5917	10.0985	20.4718	17.5273	32.4596	19.9527	22.8424	11.5128	32.621	15.6973	10.2802	15.2184	19.6299	34.824	17.7317	10.4576	26.0048	11.7006	36.6939	23.1156	25.1154	14.5666	27.5778	10.0214	30.6417	10.0373	19.3543	10.19	11.0124	21.73	13.2864	25.8144	10.5813	11.3928	9.63149	38.6377	15.1077	29.1629	31.2796	10.9649	30.5362	19.7959	9.77933	12.1181	11.6135	11.6404	26.0426	29.7785	14.8099	8.34012	19.4169	14.8924	13.9929	19.1248	17.1396	8.4228	19.695	27.5389	21.9858	21.1072	11.8604	26.1096	16.4009	10.6633	24.7205	30.6723	23.1206	12.162	14.2404	9.68149	19.9849	31.8928	10.2074	12.3957	36.5898	24.0846	8.04604	22.0525	8.84245	16.7179	29.9911	24.2912	9.7606	8.98337	33.198