<VTKFile byte_order="LittleEndian" type="PolyData" version="0.1">
 <PolyData>
     <Piece   NumberOfPoints="1000">
         <Points>
             <DataArray Name="coords" NumberOfComponents="3" type="Float64">
100	100	100	100	200	100	100	300	100	100	400	100	100	500	100	100	600	100	100	700	100	100	800	100	100	900	100	100	1000	100	200	100	100	200	200	100	200	300	100	200	400	100	200	500	100	200	600	100	200	700	100	200	800	100	200	900	100	200	1000	100	300	100	100	300	200	100	300	300	100	300	400	100	300	500	100	300	600	100	300	700	100	300	800	100	300	900	100	300	1000	100	400	100	100	400	200	100	400	300	100	400	400	100	400	500	100	400	600	100	400	700	100	400	800	100	400	900	100	400	1000	100	500	100	100	500	200	100	500	300	100	500	400	100	500	500	100	500	600	100	500	700	100	500	800	100	500	900	100	500	1000	100	600	100	100	600	200	100	600	300	100	600	400	100	600	500	100	600	600	100	600	700	100	600	800	100	600	900	100	600	1000	100	700	100	100	700	200	100	700	300	100	700	400	100	700	500	100	700	600	100	700	700	100	700	800	100	700	900	100	700	1000	100	800	100	100	800	200	100	800	300	100	800	400	100	800	500	100	800	600	100	800	700	100	800	800	100	800	900	100	800	1000	100	900	100	100	900	200	100	900	300	100	900	400	100	900	500	100	900	600	100	900	700	100	900	800	100	900	900	100	900	1000	100	1000	100	100	1000	200	100	1000	300	100	1000	400	100	1000	500	100	1000	600	100	1000	700	100	1000	800	100	1000	900	100	1000	1000	100	100	100	200	100	200	200	100	300	200	100	400	200	100	500	200	100	600	200	100	700	200	100	800	200	100	900	200	100	1000	200	200	100	200	200	200	200	200	300	200	200	400	200	200	500	200	200	600	200	200	700	200	200	800	200	200	900	200	200	1000	200	300	100	200	300	200	200	300	300	200	300	400	200	300	500	200	300	600	200	300	700	200	300	800	200	300	900	200	300	1000	200	400	100	200	400	200	200	400	300	200	400	400	200	400	500	200	400	600	200	400	700	200	400	800	200	400	900	200	400	1000	200	500	100	200	500	200	200	500	300	200	500	400	200	500	500	200	500	600	200	500	700	200	500	800	200	500	900	200	500	1000	200	600	100	200	600	200	200	600	300	200	600	400	200	600	500	200	600	600	200	600	700	200	600	800	200	600	900	200	600	1000	200	700	100	200	700	200	200	700	300	200	700	400	200	700	500	200	700	600	200	700	700	200	700	800	200	700	900	200	700	1000	200	800	100	200	800	200	200	800	300	200	800	400	200	800	500	200	800	600	200	800	700	200	800	800	200	800	900	200	800	1000	200	900	100	200	900	200	200	900	300	200	900	400	200	900	500	200	900	600	200	900	700	200	900	800	200	900	900	200	900	1000	200	1000	100	200	1000	200	200	1000	300	200	1000	400	200	1000	500	200	1000	600	200	1000	700	200	1000	800	200	1000	900	200	1000	1000	200	100	100	300	100	200	300	100	300	300	100	400	300	100	500	300	100	600	300	100	700	300	100	800	300	100	900	300	100	1000	300	200	100	300	200	200	300	200	300	300	200	400	300	200	500	300	200	600	300	200	700	300	200	800	300	200	900	300	200	1000	300	300	100	300	300	200	300	300	300	300	300	400	300	300	500	300	300	600	300	300	700	300	300	800	300	300	900	300	300	1000	300	400	100	300	400	200	300	400	300	300	400	400	300	400	500	300	400	600	300	400	700	300	400	800	300	400	900	300	400	1000	300	500	100	300	500	200	300	500	300	300	500	400	300	500	500	300	500	600	300	500	700	300	500	800	300	500	900	300	500	1000	300	600	100	300	600	200	300	600	300	300	600	400	300	600	500	300	600	600	300	600	700	300	600	800	300	600	900	300	600	1000	300	700	100	300	700	200	300	700	300	300	700	400	300	700	500	300	700	600	300	700	700	300	700	800	300	700	900	300	700	1000	300	800	100	300	800	200	300	800	300	300	800	400	300	800	500	300	800	600	300	800	700	300	800	800	300	800	900	300	800	1000	300	900	100	300	900	200	300	900	300	300	900	400	300	900	500	300	900	600	300	900	700	300	900	800	300	900	900	300	900	1000	300	1000	100	300	1000	200	300	1000	300	300	1000	400	300	1000	500	300	1000	600	300	1000	700	300	1000	800	300	1000	900	300	1000	1000	300	100	100	400	100	200	400	100	300	400	100	400	400	100	500	400	100	600	400	100	700	400	100	800	400	100	900	400	100	1000	400	200	100	400	200	200	400	200	300	400	200	400	400	200	500	400	200	600	400	200	700	400	200	800	400	200	900	400	200	1000	400	300	100	400	300	200	400	300	300	400	300	400	400	300	500	400	300	600	400	300	700	400	300	800	400	300	900	400	300	1000	400	400	100	400	400	200	400	400	300	400	400	400	400	400	500	400	400	600	400	400	700	400	400	800	400	400	900	400	400	1000	400	500	100	400	500	200	400	500	300	400	500	400	400	500	500	400	500	600	400	500	700	400	500	800	400	500	900	400	500	1000	400	600	100	400	600	200	400	600	300	400	600	400	400	600	500	400	600	600	400	600	700	400	600	800	400	600	900	400	600	1000	400	700	100	400	700	200	400	700	300	400	700	400	400	700	500	400	700	600	400	700	700	400	700	800	400	700	900	400	700	1000	400	800	100	400	800	200	400	800	300	400	800	400	400	800	500	400	800	600	400	800	700	400	800	800	400	800	900	400	800	1000	400	900	100	400	900	200	400	900	300	400	900	400	400	900	500	400	900	600	400	900	700	400	900	800	400	900	900	400	900	1000	400	1000	100	400	1000	200	400	1000	300	400	1000	400	400	1000	500	400	1000	600	400	1000	700	400	1000	800	400	1000	900	400	1000	1000	400	100	100	500	100	200	500	100	300	500	100	400	500	100	500	500	100	600	500	100	700	500	100	800	500	100	900	500	100	1000	500	200	100	500	200	200	500	200	300	500	200	400	500	200	500	500	200	600	500	200	700	500	200	800	500	200	900	500	200	1000	500	300	100	500	300	200	500	300	300	500	300	400	500	300	500	500	300	600	500	300	700	500	300	800	500	300	900	500	300	1000	500	400	100	500	400	200	500	400	300	500	400	400	500	400	500	500	400	600	500	400	700	500	400	800	500	400	900	500	400	1000	500	500	100	500	500	200	500	500	300	500	500	400	500	500	500	500	500	600	500	500	700	500	500	800	500	500	900	500	500	1000	500	600	100	500	600	200	500	600	300	500	600	400	500	600	500	500	600	600	500	600	700	500	600	800	500	600	900	500	600	1000	500	700	100	500	700	200	500	700	300	500	700	400	500	700	500	500	700	600	500	700	700	500	700	800	500	700	900	500	700	1000	500	800	100	500	800	200	500	800	300	500	800	400	500	800	500	500	800	600	500	800	700	500	800	800	500	800	900	500	800	1000	500	900	100	500	900	200	500	900	300	500	900	400	500	900	500	500	900	600	500	900	700	500	900	800	500	900	900	500	900	1000	500	1000	100	500	1000	200	500	1000	300	500	1000	400	500	1000	500	500	1000	600	500	1000	700	500	1000	800	500	1000	900	500	1000	1000	500	100	100	600	100	200	600	100	300	600	100	400	600	100	500	600	100	600	600	100	700	600	100	800	600	100	900	600	100	1000	600	200	100	600	200	200	600	200	300	600	200	400	600	200	500	600	200	600	600	200	700	600	200	800	600	200	900	600	200	1000	600	300	100	600	300	200	600	300	300	600	300	400	600	300	500	600	300	600	600	300	700	600	300	800	600	300	900	600	300	1000	600	400	100	600	400	200	600	400	300	600	400	400	600	400	500	600	400	600	600	400	700	600	400	800	600	400	900	600	400	1000	600	500	100	600	500	200	600	500	300	600	500	400	600	500	500	600	500	600	600	500	700	600	500	800	600	500	900	600	500	1000	600	600	100	600	600	200	600	600	300	600	600	400	600	600	500	600	600	600	600	600	700	600	600	800	600	600	900	600	600	1000	600	700	100	600	700	200	600	700	300	600	700	400	600	700	500	600	700	600	600	700	700	600	700	800	600	700	900	600	700	1000	600	800	100	600	800	200	600	800	300	600	800	400	600	800	500	600	800	600	600	800	700	600	800	800	600	800	900	600	800	1000	600	900	100	600	900	200	600	900	300	600	900	400	600	900	500	600	900	600	600	900	700	600	900	800	600	900	900	600	900	1000	600	1000	100	600	1000	200	600	1000	300	600	1000	400	600	1000	500	600	1000	600	600	1000	700	600	1000	800	600	1000	900	600	1000	1000	600	100	100	700	100	200	700	100	300	700	100	400	700	100	500	700	100	600	700	100	700	700	100	800	700	100	900	700	100	1000	700	200	100	700	200	200	700	200	300	700	200	400	700	200	500	700	200	600	700	200	700	700	200	800	700	200	900	700	200	1000	700	300	100	700	300	200	700	300	300	700	300	400	700	300	500	700	300	600	700	300	700	700	300	800	700	300	900	700	300	1000	700	400	100	700	400	200	700	400	300	700	400	400	700	400	500	700	400	600	700	400	700	700	400	800	700	400	900	700	400	1000	700	500	100	700	500	200	700	500	300	700	500	400	700	500	500	700	500	600	700	500	700	700	500	800	700	500	900	700	500	1000	700	600	100	700	600	200	700	600	300	700	600	400	700	600	500	700	600	600	700	600	700	700	600	800	700	600	900	700	600	1000	700	700	100	700	700	200	700	700	300	700	700	400	700	700	500	700	700	600	700	700	700	700	700	800	700	700	900	700	700	1000	700	800	100	700	800	200	700	800	300	700	800	400	700	800	500	700	800	600	700	800	700	700	800	800	700	800	900	700	800	1000	700	900	100	700	900	200	700	900	300	700	900	400	700	900	500	700	900	600	700	900	700	700	900	800	700	900	900	700	900	1000	700	1000	100	700	1000	200	700	1000	300	700	1000	400	700	1000	500	700	1000	600	700	1000	700	700	1000	800	700	1000	900	700	1000	1000	700	100	100	800	100	200	800	100	300	800	100	400	800	100	500	800	100	600	800	100	700	800	100	800	800	100	900	800	100	1000	800	200	100	800	200	200	800	200	300	800	200	400	800	200	500	800	200	600	800	200	700	800	200	800	800	200	900	800	200	1000	800	300	100	800	300	200	800	300	300	800	300	400	800	300	500	800	300	600	800	300	700	800	300	800	800	300	900	800	300	1000	800	400	100	800	400	200	800	400	300	800	400	400	800	400	500	800	400	600	800	400	700	800	400	800	800	400	900	800	400	1000	800	500	100	800	500	200	800	500	300	800	500	400	800	500	500	800	500	600	800	500	700	800	500	800	800	500	900	800	500	1000	800	600	100	800	600	200	800	600	300	800	600	400	800	600	500	800	600	600	800	600	700	800	600	800	800	600	900	800	600	1000	800	700	100	800	700	200	800	700	300	800	700	400	800	700	500	800	700	600	800	700	700	800	700	800	800	700	900	800	700	1000	800	800	100	800	800	200	800	800	300	800	800	400	800	800	500	800	800	600	800	800	700	800	800	800	800	800	900	800	800	1000	800	900	100	800	900	200	800	900	300	800	900	400	800	900	500	800	900	600	800	900	700	800	900	800	800	900	900	800	900	1000	800	1000	100	800	1000	200	800	1000	300	800	1000	400	800	1000	500	800	1000	600	800	1000	700	800	1000	800	800	1000	900	800	1000	1000	800	100	100	900	100	200	900	100	300	900	100	400	900	100	500	900	100	600	900	100	700	900	100	800	900	100	900	900	100	1000	900	200	100	900	200	200	900	200	300	900	200	400	900	200	500	900	200	600	900	200	700	900	200	800	900	200	900	900	200	1000	900	300	100	900	300	200	900	300	300	900	300	400	900	300	500	900	300	600	900	300	700	900	300	800	900	300	900	900	300	1000	900	400	100	900	400	200	900	400	300	900	400	400	900	400	500	900	400	600	900	400	700	900	400	800	900	400	900	900	400	1000	900	500	100	900	500	200	900	500	300	900	500	400	900	500	500	900	500	600	900	500	700	900	500	800	900	500	900	900	500	1000	900	600	100	900	600	200	900	600	300	900	600	400	900	600	500	900	600	600	900	600	700	900	600	800	900	600	900	900	600	1000	900	700	100	900	700	200	900	700	300	900	700	400	900	700	500	900	700	600	900	700	700	900	700	800	900	700	900	900	700	1000	900	800	100	900	800	200	900	800	300	900	800	400	900	800	500	900	800	600	900	800	700	900	800	800	900	800	900	900	800	1000	900	900	100	900	900	200	900	900	300	900	900	400	900	900	500	900	900	600	900	900	700	900	900	800	900	900	900	900	900	1000	900	1000	100	900	1000	200	900	1000	300	900	1000	400	900	1000	500	900	1000	600	900	1000	700	900	1000	800	900	1000	900	900	1000	1000	900	100	100	1000	100	200	1000	100	300	1000	100	400	1000	100	500	1000	100	600	1000	100	700	1000	100	800	1000	100	900	1000	100	1000	1000	200	100	1000	200	200	1000	200	300	1000	200	400	1000	200	500	1000	200	600	1000	200	700	1000	200	800	1000	200	900	1000	200	1000	1000	300	100	1000	300	200	1000	300	300	1000	300	400	1000	300	500	1000	300	600	1000	300	700	1000	300	800	1000	300	900	1000	300	1000	1000	400	100	1000	400	200	1000	400	300	1000	400	400	1000	400	500	1000	400	600	1000	400	700	1000	400	800	1000	400	900	1000	400	1000	1000	500	100	1000	500	200	1000	500	300	1000	500	400	1000	500	500	1000	500	600	1000	500	700	1000	500	800	1000	500	900	1000	500	1000	1000	600	100	1000	600	200	1000	600	300	1000	600	400	1000	600	500	1000	600	600	1000	600	700	1000	600	800	1000	600	900	1000	600	1000	1000	700	100	1000	700	200	1000	700	300	1000	700	400	1000	700	500	1000	700	600	1000	700	700	1000	700	800	1000	700	900	1000	700	1000	1000	800	100	1000	800	200	1000	800	300	1000	800	400	1000	800	500	1000	800	600	1000	800	700	1000	800	800	1000	800	900	1000	800	1000	1000	900	100	1000	900	200	1000	900	300	1000	900	400	1000	900	500	1000	900	600	1000	900	700	1000	900	800	1000	900	900	1000	900	1000	1000	1000	100	1000	1000	200	1000	1000	300	1000	1000	400	1000	1000	500	1000	1000	600	1000	1000	700	1000	1000	800	1000	1000	900	1000	1000	1000	1000	
             </DataArray>
         </Points>
         <PointData Scalars="Point Data">
             <DataArray type="Float32" Name="diameter" format="ascii">
14.7644	10.4346	27.0038	47.7049	24.6312	28.3199	10.2833	28.4383	78.3178	63.3681	48.2414	12.6617	70.0008	64.3002	14.2918	38.9065	10.4576	12.8819	19.7401	14.0736	51.4682	58.8332	20.9649	19.8426	12.7418	12.0023	46.43	36.225	11.2894	27.9801	23.6761	62.9602	46.9605	36.4239	32.708	79.6817	87.1555	20.6734	16.7702	55.9921	11.4872	21.8772	11.646	19.8667	11.6551	18.6723	55.1969	71.9006	55.5118	33.3815	37.5466	21.7317	14.4066	25.4897	48.5495	11.4674	10.4633	52.8206	19.0617	45.2569	48.749	76.69	23.6081	21.5911	57.2905	52.1077	40.6711	57.8648	39.7557	81.2748	20.4902	49.1398	79.8198	20.5116	37.1898	21.9264	26.907	11.7722	10.4316	51.5455	26.4061	38.1084	49.3262	24.5503	22.0176	14.4131	55.6688	60.8449	48.6997	67.0455	40.2671	44.7499	15.1727	52.4761	20.4993	25.5835	19.8456	33.8519	41.2165	34.3887	19.8168	16.0051	62.5231	19.1518	25.5978	12.1973	19.1035	12.0475	20.9242	46.0791	84.5406	38.3076	17.8565	41.0377	38.456	59.829	31.4157	72.868	24.3852	18.5052	30.438	74.8277	47.5967	28.8402	29.0629	40.3258	26.1258	32.5851	83.9781	76.6013	61.9175	13.1709	33.0016	21.9618	72.9829	19.6274	76.3047	16.7156	24.641	81.763	35.9072	76.5535	31.7668	16.3518	46.4544	30.6065	29.5651	13.4409	13.6866	76.0965	81.0076	82.9335	21.5612	11.0517	32.8172	48.9276	40.2662	11.2224	16.5218	45.7319	11.275	62.7467	87.6616	17.0562	11.2513	85.7075	52.4271	26.4875	27.8879	73.6188	21.4714	11.2285	37.3796	19.58	43.3408	79.4644	21.6898	17.027	11.2229	60.654	11.8585	80.2643	45.7585	72.938	58.3229	15.0984	14.6269	82.0407	18.7031	55.2608	14.4676	19.0267	42.578	17.0788	50.6558	67.6625	19.9092	19.0113	10.6241	24.7607	11.5311	34.3216	43.9542	33.8531	36.5558	36.2334	71.4404	31.2359	64.93	21.2956	13.561	16.1381	55.5947	16.4094	53.0572	71.4719	32.1484	13.6368	38.1635	22.5823	72.414	16.1989	16.5715	28.1344	28.818	15.0032	22.3352	42.0831	27.4294	11.3889	24.375	24.4012	26.1165	10.5344	18.0359	79.9292	68.2527	78.115	51.4579	25.3675	77.5261	19.0905	35.7306	35.2852	25.7368	17.1499	20.3426	39.817	18.4255	21.0352	21.3925	20.0981	60.2226	32.2455	10.4095	49.5055	29.356	53.8206	28.8805	19.5089	61.72	14.547	18.2013	28.2423	64.7031	12.8396	20.7014	31.3175	43.0356	12.5654	51.0443	33.0301	30.3162	22.6485	19.6679	69.4501	88.6583	14.6054	15.7843	41.9781	52.1161	59.4642	19.1632	15.7036	11.7104	22.4304	33.4296	66.6219	10.7477	12.1511	40.7184	42.3754	13.0885	12.3284	10.6298	40.3269	18.2627	16.8103	41.7496	13.0006	31.6004	12.1844	11.5387	42.1166	55.3858	26.9582	23.6999	45.2954	11.7987	18.2016	71.8783	79.654	10.8736	10.0673	52.5058	26.3564	51.8676	39.8225	26.1367	46.1485	36.6195	10.3494	27.1721	68.0944	53.9894	40.8778	38.0043	58.6113	18.7152	23.2968	38.7643	59.1929	19.9524	14.3961	17.9693	25.6391	12.3843	38.5684	70.4215	20.8568	81.0693	24.6009	31.5548	85.1014	46.1539	29.5674	50.9615	27.5937	47.3503	16.1544	11.8205	36.1946	30.7458	26.8578	12.9024	76.9868	12.7439	83.2375	19.8139	18.3397	77.9823	81.8858	45.2066	80.8493	14.598	64.2245	37.7254	18.8841	35.981	12.6769	55.4327	39.7264	12.6155	16.0618	18.7311	27.6178	16.4424	18.9648	32.6444	13.7475	50.8205	26.2826	23.9518	34.2343	14.0668	69.615	12.8382	32.3384	82.7388	13.5193	45.022	84.7892	89.0981	21.1044	38.3526	78.4233	38.2502	66.6632	44.8994	10.8383	21.0052	69.9883	27.3286	25.3663	19.2645	14.1288	42.1481	23.3583	68.1104	10.9875	66.8992	12.2225	59.539	26.7053	49.3508	26.3006	14.0925	79.5096	39.7786	15.8966	35.9874	15.7213	23.6893	35.8868	37.0796	12.64	15.1581	26.718	30.252	64.3135	34.4762	57.9373	22.1159	15.0019	18.2563	10.5605	21.8546	39.1765	62.1	16.5893	45.72	50.7207	44.2736	82.4306	34.7123	25.8914	31.6266	10.1047	10.1481	28.8209	22.4429	13.3975	21.401	39.6897	30.6864	23.4115	52.7609	11.2327	68.7502	43.1098	24.5935	44.3237	77.845	40.8698	42.099	45.3503	73.6497	69.2602	18.2435	10.502	18.1834	21.8497	17.0436	26.6641	77.6147	15.0542	22.6789	60.8455	13.2851	21.3141	32.6029	52.6803	64.9973	17.3564	80.2976	25.4141	13.2825	14.1059	25.5511	57.9791	11.6198	15.9881	56.6677	59.5183	15.4018	11.303	40.7977	55.6776	11.1456	30.6748	13.596	36.329	12.7632	13.3058	31.8835	79.285	10.6443	12.4094	15.4657	58.3563	16.7849	17.9603	25.1181	64.249	18.2787	27.5	27.6919	29.1937	26.0191	57.0993	15.3976	29.4967	13.2841	66.4362	24.8826	89.5742	41.6335	15.5358	75.2493	18.8053	39.4255	52.1893	12.514	14.8868	24.9742	21.5973	19.7198	17.8909	21.6891	86.0951	26.7297	26.6967	17.1549	15.0647	17.4104	68.6718	68.7663	14.4663	23.4221	34.7539	32.7861	15.4477	11.4386	56.0171	13.25	23.4664	51.8511	43.6996	24.0156	56.3565	88.547	27.9895	68.5634	30.5616	23.0087	87.7554	52.9923	13.4109	31.9214	22.5682	28.939	51.0901	20.6473	36.3471	16.7115	25.8699	69.2408	48.9912	21.7972	18.1994	36.4975	27.6949	87.3384	18.9051	74.5396	16.5802	56.6188	65.5296	15.04	25.9069	46.2526	24.2042	12.6264	52.4666	28.393	14.8985	11.1829	30.5478	18.7537	58.1712	14.0625	10.3646	72.2831	24.5012	63.7861	33.9991	67.9188	77.6797	12.0123	18.2311	14.8558	81.1159	44.6182	75.3965	86.8596	55.4068	66.8699	78.1315	37.0064	59.0209	84.6471	27.4854	15.9615	41.8275	11.2832	19.4498	22.4505	57.0751	10.5372	19.9669	19.3362	41.5668	67.0492	28.0208	62.3836	24.7345	29.3705	19.94	15.2739	69.4499	36.4472	17.8154	31.7585	23.837	10.8369	44.8183	65.9131	36.9561	13.7686	24.5937	15.5203	14.4533	18.8325	70.3366	62.2479	55.6388	75.8221	12.6378	16.0388	10.9922	10.0912	39.6682	24.0246	33.6514	66.0448	18.5278	16.9402	59.2405	10.5571	75.4504	21.0713	10.7565	15.9664	11.9229	62.5004	11.2861	11.2346	37.4612	15.7329	20.5203	54.7282	24.9065	48.1788	18.3396	13.2857	11.5958	61.598	13.0314	11.8626	14.0478	30.6033	43.9964	28.8516	37.9418	29.0444	49.8146	36.5405	14.6275	20.5824	88.5549	26.1757	42.9525	14.5185	42.7963	44.9413	14.1425	78.2366	23.3066	21.0323	42.9964	74.4374	61.5713	33.3974	11.2567	28.3467	37.9374	61.3443	15.4725	27.1484	39.6614	43.9805	11.0632	67.1417	12.7964	63.8523	65.2846	37.2719	31.9185	21.1886	23.0279	74.6721	41.1344	27.0973	21.6047	88.9474	77.2111	75.1075	75.3924	21.5136	60.9638	43.9965	73.1774	48.8466	60.8478	56.4728	34.6167	44.7975	11.7877	22.8313	57.0493	12.2375	20.3256	38.3968	26.2587	11.7046	14.4758	41.8878	32.4034	35.3657	72.1357	76.6952	18.8196	68.5589	30.7232	39.8173	12.4543	23.6683	79.6132	77.8397	24.3744	16.9975	81.7588	29.3159	79.405	10.7999	35.8054	18.3426	10.0859	28.4979	79.5274	26.7451	15.8533	45.0454	67.1123	51.5565	17.1416	53.7415	53.6773	26.8372	51.0041	10.8304	15.5841	22.9692	75.6524	44.7275	42.1221	59.4914	47.4246	11.4623	69.7231	51.8681	15.9218	35.8541	26.3563	10.6543	56.717	20.9453	38.5052	59.1572	76.2804	30.9363	26.1631	10.2154	12.7799	47.846	14.8503	30.9713	14.3302	55.6334	15.7433	52.8471	25.9458	50.3549	21.6189	82.7404	29.3888	23.9032	24.3517	19.2354	42.4412	14.5611	13.9587	82.4934	15.7302	57.8074	11.9769	35.8289	12.573	21.6841	20.5109	37.295	10.0886	18.1457	51.7473	51.4527	55.1443	34.4862	50.9269	25.4118	19.6961	57.9649	23.4382	13.3268	80.8458	13.2141	52.3849	15.6919	64.4856	38.2167	78.701	36.5371	62.1257	28.957	69.4009	24.0394	75.8704	40.1162	74.4744	10.9803	21.8924	71.2818	17.8003	32.0923	24.5945	10.221	10.943	28.6146	22.5265	68.9974	20.2021	14.0697	12.9657	24.1621	86.7648	70.5817	31.5207	30.4699	37.9597	49.678	11.299	77.6436	67.012	27.2198	20.6528	31.1965	29.4625	19.7924	13.1073	47.7602	69.3681	40.439	18.6748	25.518	15.0034	77.4457	17.1588	21.3304	40.2558	48.9707	26.3176	13.4731	24.0976	58.6022	18.2564	24.024	18.0125	22.1028	20.5641	27.8969	60.3033	58.5939	14.5247	16.6684	20.9327	43.2298	48.8556	48.8575	15.9416	16.1794	87.3403	35.3317	51.8003	15.5362	37.786	18.8186	28.3048	25.8995	64.6105	21.6549	49.2039	19.4078	36.6875	64.1658	16.5374	24.5075	85.1469	60.0214	68.3148	36.3538	22.3056	13.6049	65.5312	12.8284	76.7695	76.0266	79.7498	53.8971	41.4883	23.0164	60.6828	34.7851	29.9778	13.401	12.9462	42.6686	13.5089	45.3585	25.4203	13.2113	33.34	55.2614	87.8242	17.0625	23.1705	28.2636	28.4141	16.6242	20.3133	12.1414	34.1422	89.2384	13.0924	47.2173	31.0035	20.228	20.4454	87.0686	12.6552	35.3774	31.6455	78.6631	15.5141	10.668	68.7648	20.1076	24.0672	12.9688	16.2872	16.2797	43.3503	
             </DataArray>
             <DataArray type="Float32" Name="pressure" format="ascii">
10	10	10	10	10	10	10	10	10	10	10	10	10	10	10	10	10	10	10	10	10	10	10	10	10	10	10	10	10	10	10	10	10	10	10	10	10	10	10	10	10	10	10	10	10	10	10	10	10	10	10	10	10	10	10	10	10	10	10	10	10	10	10	10	10	10	10	10	10	10	10	10	10	10	10	10	10	10	10	10	10	10	10	10	10	10	10	10	10	10	10	10	10	10	10	10	10	10	10	10	9.88706	9.6589	9.46656	9.56465	9.37995	9.42469	9.30341	9.57504	9.74989	9.97432	9.95542	9.94615	9.74694	9.78583	9.35842	9.32788	9.46187	9.644	9.71616	9.79593	9.64781	9.95843	9.90942	9.63682	9.44888	9.39824	9.73452	9.77881	9.94405	9.95184	9.43981	9.62795	9.75232	9.72492	9.65432	9.76085	9.94411	9.84085	9.85184	9.96034	9.37318	9.79849	9.46067	9.33469	9.60629	9.5889	9.80278	9.79072	9.83551	9.96153	9.81024	9.81707	9.47008	9.36591	9.68105	9.44031	9.57258	9.66989	9.73496	9.97633	9.39217	9.89091	9.87689	9.4825	9.50271	9.73114	9.74214	9.73397	9.75438	9.99484	8.84786	9.39769	9.78657	9.57785	9.68876	9.72191	9.76684	9.81517	9.81432	9.99385	9.09707	9.09297	9.47423	9.53209	9.54296	9.59293	9.81918	9.94746	9.95292	9.99615	9.16449	9.20946	9.46731	9.58644	9.47302	9.4086	9.5937	9.82046	9.66984	9.96932	9.16899	9.37245	9.3846	9.08123	8.99215	9.11651	9.11704	9.11751	9.28954	9.4764	9.11439	9.18485	9.38002	9.22528	9.05873	9.21019	9.15639	9.28626	9.31306	9.22249	8.83123	9.14734	9.1058	8.81188	8.91101	9.27968	9.45501	9.51856	9.61422	9.48748	8.68985	8.38072	8.86747	8.80454	9.25845	9.7959	9.80928	9.7014	9.5532	9.70248	8.36321	8.74631	8.44999	8.0025	8.57576	9.00828	9.21516	9.48297	9.44985	9.64215	8.83008	8.87716	8.36577	8.17644	8.56065	8.47672	9.08875	9.24481	9.19945	9.36866	8.10405	8.70079	8.81743	8.21048	8.38794	8.93431	9.13701	9.24575	9.16982	9.53637	8.22875	8.54266	9.13954	8.84604	9.09914	9.70207	9.70017	9.46248	9.34165	9.96878	8.44401	8.84482	8.88753	8.88417	9.11485	9.36161	9.75622	9.9134	9.28265	9.45127	8.2332	8.22515	8.52111	8.78155	9.09896	9.1391	9.27015	9.22294	8.64714	9.12712	8.29056	8.32015	8.51141	8.76334	8.75018	8.86527	8.89316	8.8748	8.85781	8.99657	8.32068	8.32163	8.30327	8.4342	8.68412	8.8075	8.92565	8.81468	8.83685	8.83326	8.45373	8.21967	8.17472	8.32095	8.46407	8.68178	8.98079	9.18237	9.053	8.63736	8.11289	7.69324	8.03358	8.01086	8.33648	9.01182	8.88736	9.38858	9.35739	9.04879	8.32718	7.99895	7.88487	7.65873	7.70269	7.90448	7.84484	9.05175	9.31416	8.32973	8.20981	8.0616	8.03105	7.74566	7.77925	7.96576	8.05894	9.21559	8.40516	7.61671	8.0589	8.03486	7.85426	7.77725	7.86958	7.80619	7.25005	8.25915	8.85199	8.33626	8.11513	8.11063	8.10552	7.97928	8.12411	8.78673	8.41984	8.14105	8.66258	8.32742	8.15582	8.03743	7.78895	7.91679	8.2587	8.87832	8.8572	9.00923	8.61632	7.71146	7.94704	7.75784	7.73521	7.94089	8.82414	8.88593	8.73344	8.60977	8.61674	7.55356	7.93042	7.36434	7.31677	7.90715	7.82943	7.65566	8.58828	8.5092	8.32098	7.52985	8.30853	7.59534	7.02717	7.15858	8.38791	7.89804	8.07589	8.42305	8.3273	7.67834	8.21701	7.51857	7.422	7.32424	8.08891	7.56201	7.91218	8.74953	8.3864	8.19061	7.81575	7.55132	7.59695	7.40492	7.35757	7.44218	7.82251	9.17733	9.27795	7.18298	8.05629	7.71212	7.67836	7.64609	7.53859	6.85785	6.70912	7.77068	7.31986	5.21377	7.77166	7.74963	7.65364	7.24847	7.30865	7.081	6.36487	6.98545	5.48019	5.31273	7.76519	7.8531	7.70181	7.56655	7.25868	6.94601	6.51868	6.48415	6.6234	6.0723	7.73987	7.6744	7.52641	7.36921	7.30522	7.37861	6.5425	6.40365	6.81142	5.58583	7.64816	7.40124	7.34107	7.4175	7.30647	8.00478	7.50541	7.48257	7.277	5.24041	7.56842	7.50354	7.55002	7.37535	7.6509	8.1436	8.58875	8.53369	7.12301	4.27102	7.13418	7.31074	6.33635	6.11283	5.55892	5.52061	6.33319	6.66498	6.72434	4.91571	7.19224	6.21178	5.96398	5.51556	6.19518	5.86838	5.81598	6.80329	6.69246	4.90582	6.59384	6.59359	6.24668	5.67824	6.2703	5.88548	5.88096	6.90824	7.57774	6.08491	7.25462	7.12692	6.54886	5.83801	5.20699	5.5968	6.03444	7.11325	6.74495	3.37437	7.10145	7.24929	6.74152	6.51241	6.22856	5.70663	5.71152	5.94335	5.30728	4.27235	7.39042	7.22654	6.91705	6.24999	6.39935	6.13438	5.9227	5.88084	5.40267	5.02955	7.43705	7.44836	7.66884	6.99786	6.61756	6.54928	6.36936	5.66546	5.43136	4.66714	7.35729	7.38599	7.34179	7.14134	6.83984	6.44499	6.16725	6.11164	5.64828	4.80922	7.21994	7.27442	7.26195	7.15738	7.30074	6.88547	6.02146	6.11663	5.75635	4.30813	7.14506	7.09107	7.15615	7.12856	6.99068	6.55044	6.86329	7.24373	5.09173	2.87201	5.12935	5.31436	4.99036	5.19619	5.30331	5.28083	5.04999	5.06567	4.95203	4.34996	4.86681	4.58705	4.97081	5.34918	5.31379	5.20165	5.07157	5.0773	4.9963	4.76434	4.23332	5.08086	5.13813	5.46635	4.9149	5.00913	5.04649	5.0432	5.39337	4.25169	5.31265	5.88469	5.50647	4.8946	3.68575	4.51888	4.81696	4.9916	4.64389	3.29025	5.08831	5.49355	5.01184	4.99952	5.00565	5.52925	5.57242	5.52397	4.41591	3.35808	6.06662	5.92821	5.52157	5.99502	5.88271	5.71381	5.63731	4.75657	4.15581	3.71131	6.14545	6.75325	6.27995	5.93793	5.84857	5.95236	5.07877	2.87625	3.81946	3.65589	6.87204	6.48057	6.39394	6.06015	5.85307	5.7264	5.37147	4.62223	4.28159	3.53207	7.05128	6.95742	6.91583	6.21369	6.13642	5.8107	5.7006	5.39452	4.36986	3.37794	7.01146	6.84211	6.55827	6.10987	5.81379	5.43304	5.48904	5.57597	3.66032	2.76315	3.85517	4.4095	4.52438	5.04691	5.17306	4.74397	5.01087	4.37679	3.20244	2.81011	4.35012	4.47156	4.53966	4.71363	4.53607	4.63034	4.96812	4.5049	3.74435	4.03824	4.04909	4.35428	4.27952	4.25907	3.56288	3.72216	4.19054	4.29351	3.64107	3.19412	4.30179	4.6031	4.53336	3.97888	3.62964	3.7068	3.82866	3.84269	3.32851	3.00451	4.29202	4.25267	4.03698	3.42663	3.48699	3.91319	4.58422	3.80311	2.59065	2.43527	3.92539	4.11907	4.30026	4.14876	4.60181	4.37739	5.0558	3.18163	2.41288	1.91826	2.57285	4.34694	4.46458	4.55766	5.48863	4.37141	3.59954	2.63071	2.62912	2.77379	4.51287	4.78206	4.92986	5.13415	5.19993	4.69797	4.38926	3.8589	2.91857	2.8044	6.62327	5.71374	5.76265	5.16498	5.13201	5.06352	5.34309	5.06928	3.65538	2.78786	5.19792	5.01271	5.36256	5.23862	5.22603	5.28008	5.29964	5.19337	3.66993	2.71319	2.22982	3.20888	3.20019	4.17695	3.5921	3.44581	3.76917	2.0776	2.02146	2.17986	3.31683	3.64819	3.49484	3.45484	3.40115	3.59904	4.35011	3.08678	2.11137	2.31904	2.51702	3.46198	4.20662	3.47732	3.36521	3.08781	3.37254	3.55924	2.4909	1.24738	3.23135	3.57849	4.20055	3.32211	3.4372	2.97211	3.38243	2.84278	2.26833	2.04433	3.52417	3.2485	3.24404	2.54723	2.93276	1.8725	2.67112	1.8324	1.87914	1.91232	2.95982	2.50483	2.89624	1.51506	2.25432	1.5105	2.71483	2.30086	2.02787	1.6927	2.28388	2.42232	3.253	1.72617	2.85478	1.70834	2.08263	2.51168	2.37857	1.92668	1.33127	3.05012	4.06704	4.14711	3.88742	3.31981	2.96429	3.00062	2.94144	2.45217	3.00288	3.37955	4.31175	5.07293	5.06551	4.60024	3.74279	4.08613	2.95486	2.48626	1.0546	1.14279	3.20545	4.28798	4.90871	4.66723	4.55664	3.90866	2.71768	2.57883	1	1	1	1	1	1	1	1	1	1	1	1	1	1	1	1	1	1	1	1	1	1	1	1	1	1	1	1	1	1	1	1	1	1	1	1	1	1	1	1	1	1	1	1	1	1	1	1	1	1	1	1	1	1	1	1	1	1	1	1	1	1	1	1	1	1	1	1	1	1	1	1	1	1	1	1	1	1	1	1	1	1	1	1	1	1	1	1	1	1	1	1	1	1	1	1	1	1	1	1	
             </DataArray>
         </PointData>
     </Piece>
 </PolyData>
</VTKFile>

